# vtk DataFile Version 4.0
vtk output
ASCII
DATASET POLYDATA
POINTS 14953 float
162 68 0 163 69 1 154 70 0
160 70 0 165 70 0 171 70 0
150 72 0 152 72 0 173 72 0
175 72 0 144 78 0 181 78 0
144 80 0 181 80 0 142 82 0
183 82 0 338 84 0 343 84 0
336 85 1 337 85 1 344 85 1
332 86 0 336 86 0 345 86 0
349 86 0 331 87 0 350 87 0
142 88 0 183 88 0 141 89 1
353 89 1 141 90 1 185 90 0
140 91 0 184 91 1 184 92 1
325 92 1 142 93 0 183 93 0
323 95 0 358 95 0 322 96 0
359 96 0 142 99 0 183 99 0
322 100 0 359 100 0 360 100 1
144 101 0 181 101 0 320 102 0
361 102 1 361 102 0 144 103 0
181 103 0 147 106 0 320 107 0
361 107 0 321 108 1 150 109 0
175 109 0 321 109 1 322 109 0
359 109 0 152 109 0 173 109 0
154 111 0 171 111 0 165 111 0
163 113 0 322 113 0 359 113 0
323 114 0 358 114 0 356 117 1
328 120 1 331 122 0 350 122 0
332 123 0 349 123 0 336 123 0
345 123 0 338 125 0 343 125 0
78 130 0 83 130 0 76 131 1
72 132 0 76 132 0 85 132 0
89 132 0 71 133 0 90 133 0
93 135 1 65 138 1 63 141 0
98 141 0 62 142 0 99 142 0
100 145 1 62 146 0 99 146 0
60 148 0 60 153 0 101 153 0
61 154 1 100 154 1 61 155 1
62 155 0 99 155 0 62 159 0
99 159 0 63 160 0 98 160 0
96 163 1 66 164 1 71 168 0
90 168 0 72 169 0 89 169 0
76 169 0 85 169 0 85 170 1
78 171 0 84 170 1 83 171 0
82 206 0 87 206 0 87 206 1
80 207 1 76 208 0 80 208 0
89 208 0 93 208 0 75 209 0
94 209 0 97 211 1 69 214 1
67 217 0 102 217 0 66 218 0
103 218 0 104 221 1 66 222 0
103 222 0 104 222 1 104 223 1
64 224 0 105 224 0 64 229 0
105 229 0 65 230 1 65 231 1
66 231 0 103 231 0 66 235 0
103 235 0 67 236 0 102 236 0
158 238 0 163 238 0 100 239 1
156 239 1 164 239 1 152 240 0
156 240 0 165 240 0 169 240 0
151 241 0 170 241 0 72 242 1
173 243 1 75 244 0 94 244 0
76 245 0 93 245 0 80 245 0
89 245 0 89 246 1 145 246 1
82 247 0 88 246 1 87 247 0
143 249 0 178 249 0 142 250 0
179 250 0 142 254 0 179 254 0
180 254 1 140 256 0 181 256 1
181 256 0 181 261 0 142 263 0
179 263 0 142 267 0 179 267 0
143 268 0 178 268 0 176 271 1
148 274 1 151 276 0 170 276 0
152 277 0 169 277 0 156 277 0
165 277 0 158 279 0 163 279 0
72 304 0 77 304 0 68 305 1
70 305 1 66 306 0 70 306 0
79 306 0 65 307 0 84 307 0
88 310 1 59 312 1 57 315 0
92 315 0 56 316 0 93 316 0
56 320 0 93 320 0 94 320 1
54 322 0 95 322 1 95 322 0
54 327 0 95 327 0 55 328 1
55 329 1 56 329 0 93 329 0
56 333 0 93 333 0 57 334 0
92 334 0 90 337 1 62 340 1
65 342 0 84 342 0 66 343 0
83 343 0 70 343 0 79 343 0
72 345 0 77 345 0 148 74 2
335 84 2 329 87 2 327 89 2
328 89 2 353 89 2 354 89 2
325 91 2 356 91 2 325 92 2
356 92 2 358 93 2 183 99 2
320 99 2 361 99 2 143 100 2
177 107 2 174 108 2 361 110 2
323 116 2 325 117 2 325 118 2
356 118 2 327 120 2 354 120 2
328 120 2 353 120 2 335 125 2
75 130 2 84 130 2 69 133 2
67 135 2 68 135 2 93 135 2
94 135 2 65 137 2 96 137 2
65 138 2 96 138 2 98 139 2
60 145 2 63 162 2 65 163 2
96 164 2 66 164 2 67 166 2
94 166 2 93 166 2 92 168 2
75 171 2 73 209 2 71 211 2
72 211 2 97 211 2 98 211 2
69 213 2 100 213 2 69 214 2
100 214 2 102 215 2 64 232 2
67 238 2 155 238 2 164 238 2
69 239 2 69 240 2 100 240 2
149 241 2 71 242 2 98 242 2
72 242 2 97 242 2 147 243 2
148 243 2 173 243 2 96 244 2
145 245 2 176 245 2 145 246 2
176 246 2 79 247 2 178 247 2
140 253 2 140 264 2 143 270 2
145 271 2 145 272 2 176 272 2
147 274 2 174 274 2 148 274 2
173 274 2 155 279 2 67 305 2
63 307 2 61 309 2 62 309 2
59 311 2 89 311 2 59 312 2
92 313 2 54 319 2 57 336 2
59 337 2 90 338 2 61 340 2
88 340 2 62 340 2 87 340 2
86 342 2 69 345 2 80 345 2
153 71 3 143 81 3 347 84 3
352 87 3 327 89 3 356 91 3
323 93 3 321 97 3 361 98 3
143 100 3 146 103 3 153 110 3
172 110 3 320 111 3 323 116 3
358 116 3 325 118 3 354 120 3
329 122 3 333 124 3 347 125 3
91 132 3 92 133 3 67 135 3
96 137 3 63 139 3 61 143 3
101 144 3 130 146 3 131 147 3
60 157 3 101 157 3 63 162 3
98 162 3 94 166 3 69 168 3
92 168 3 87 171 3 200 203 3
201 203 3 78 206 3 91 206 3
96 209 3 71 211 3 100 213 3
67 215 3 64 220 3 105 220 3
105 233 3 67 238 3 102 238 3
69 240 3 172 241 3 98 242 3
147 243 3 73 244 3 176 245 3
77 246 3 91 247 3 143 247 3
181 252 3 181 265 3 143 270 3
178 270 3 145 272 3 174 274 3
149 276 3 167 279 3 68 304 3
61 309 3 57 313 3 95 318 3
216 320 3 54 331 3 95 331 3
92 336 3 88 340 3 63 342 3
67 344 3 81 345 3 183 84 4
348 85 4 182 98 4 170 110 4
321 112 4 88 131 4 89 132 4
129 138 4 132 138 4 125 140 4
136 140 4 137 141 4 130 145 4
139 145 4 122 148 4 130 148 4
124 152 4 137 152 4 127 153 4
129 155 4 73 170 4 199 194 4
202 194 4 195 196 4 204 196 4
206 196 4 192 201 4 200 201 4
209 201 4 201 204 4 209 204 4
194 206 4 92 207 4 76 208 4
207 208 4 195 209 4 199 211 4
202 211 4 66 306 4 215 312 4
218 312 4 220 314 4 210 315 4
223 315 4 56 316 4 55 317 4
208 319 4 216 319 4 225 319 4
208 322 4 225 322 4 223 326 4
211 327 4 220 327 4 215 329 4
56 333 4 155 71 5 154 72 5
144 82 5 181 82 5 334 84 5
360 97 5 144 99 5 361 111 5
356 118 5 354 120 5 73 131 5
88 131 5 67 135 5 94 135 5
65 137 5 96 137 5 128 137 5
133 137 5 137 139 5 140 144 5
140 149 5 133 156 5 61 158 5
96 164 5 94 166 5 73 170 5
88 170 5 194 195 5 208 196 5
210 200 5 208 209 5 100 213 5
104 219 5 65 234 5 168 239 5
69 240 5 100 240 5 71 242 5
147 243 5 145 245 5 92 246 5
141 251 5 180 251 5 141 266 5
180 266 5 176 272 5 174 274 5
153 278 5 168 278 5 59 311 5
221 313 5 55 317 5 94 317 5
209 317 5 226 318 5 222 328 5
94 332 5 90 338 5 61 340 5
88 340 5 82 344 5 151 73 6
147 77 6 145 79 6 180 79 6
183 84 6 328 88 6 325 89 6
356 89 6 359 94 6 142 97 6
183 97 6 181 101 6 145 102 6
149 106 6 151 108 6 169 111 6
324 117 6 325 120 6 356 120 6
351 123 6 69 133 6 96 135 6
131 135 6 125 136 6 128 136 6
136 136 6 126 138 6 62 140 6
99 140 6 142 146 6 122 151 6
120 152 6 126 155 6 125 157 6
61 160 6 65 166 6 96 166 6
93 167 6 90 170 6 195 192 6
206 192 6 196 194 6 191 196 6
192 198 6 209 198 6 189 202 6
212 203 6 192 207 6 72 210 6
69 211 6 196 211 6 195 213 6
68 214 6 66 216 6 67 238 6
100 242 6 148 242 6 145 243 6
95 245 6 75 246 6 144 246 6
179 248 6 141 249 6 143 270 6
176 274 6 171 277 6 151 278 6
62 308 6 90 309 6 217 309 6
211 310 6 214 310 6 222 310 6
212 312 6 93 314 6 205 320 6
208 325 6 225 325 6 206 326 6
212 329 6 221 329 6 211 331 6
90 340 6 85 343 6 157 70 7
168 70 7 151 73 7 174 73 7
149 75 7 150 75 7 149 76 7
176 76 7 178 77 7 178 78 7
145 79 7 144 81 7 349 84 7
142 85 7 183 85 7 326 88 7
356 89 7 358 92 7 142 96 7
320 96 7 361 96 7 143 98 7
145 102 7 147 103 7 147 104 7
178 104 7 361 104 7 149 106 7
176 106 7 175 106 7 157 111 7
166 111 7 320 113 7 361 113 7
324 119 7 357 119 7 326 121 7
355 121 7 329 122 7 332 125 7
341 125 7 72 130 7 81 130 7
89 130 7 66 134 7 95 134 7
133 135 7 137 135 7 64 136 7
97 136 7 98 138 7 119 141 7
142 141 7 60 142 7 101 142 7
119 152 7 119 153 7 124 158 7
136 158 7 101 159 7 63 162 7
97 165 7 95 167 7 72 171 7
89 171 7 195 191 7 206 191 7
189 197 7 212 197 7 212 201 7
212 204 7 76 206 7 85 206 7
93 206 7 189 208 7 212 208 7
70 210 7 101 212 7 195 214 7
206 214 7 64 218 7 64 227 7
105 227 7 64 235 7 152 238 7
169 238 7 68 241 7 146 242 7
70 243 7 176 243 7 144 244 7
178 246 7 76 247 7 93 247 7
140 250 7 181 250 7 140 259 7
140 267 7 181 267 7 143 270 7
177 273 7 145 274 7 175 275 7
149 276 7 169 279 7 161 279 7
66 304 7 83 304 7 60 308 7
219 309 7 58 310 7 92 312 7
205 315 7 228 315 7 54 316 7
95 316 7 228 326 7 211 332 7
223 332 7 95 333 7 91 339 7
89 341 7 66 345 7 147 78 8
341 83 8 339 84 8 329 86 8
143 87 8 319 104 8 149 105 8
175 106 8 156 110 8 159 110 8
168 110 8 329 123 8 340 126 8
81 129 8 129 132 8 128 134 8
121 136 8 122 136 8 120 138 8
142 139 8 143 144 8 145 145 8
116 148 8 118 149 8 143 149 8
59 150 8 141 155 8 132 161 8
80 172 8 191 192 8 209 192 8
211 193 8 190 194 8 212 195 8
215 201 8 186 204 8 84 205 8
85 205 8 73 208 8 211 211 8
191 213 8 203 215 8 202 217 8
63 226 8 106 226 8 161 237 8
66 238 8 85 248 8 182 259 8
142 270 8 149 277 8 160 280 8
63 306 8 218 306 8 207 310 8
225 310 8 206 312 8 227 312 8
202 322 8 204 323 8 96 325 8
227 329 8 227 330 8 219 333 8
74 346 8 164 70 9 158 72 9
167 72 9 179 80 9 142 89 9
183 89 9 183 92 9 359 93 9
144 95 9 362 104 9 152 107 9
167 109 9 161 111 9 352 123 9
339 125 9 128 131 9 133 131 9
124 133 9 127 133 9 134 133 9
137 133 9 137 134 9 120 135 9
62 139 9 99 139 9 117 140 9
118 140 9 143 140 9 144 140 9
144 143 9 146 144 9 115 145 9
146 149 9 117 150 9 102 151 9
143 153 9 119 156 9 142 156 9
119 157 9 120 158 9 121 158 9
140 158 9 141 158 9 127 160 9
134 160 9 137 160 9 129 162 9
133 162 9 92 169 9 82 171 9
203 187 9 194 189 9 193 190 9
194 190 9 190 191 9 210 191 9
212 192 9 187 196 9 213 196 9
214 196 9 214 197 9 187 198 9
214 199 9 216 200 9 185 201 9
216 204 9 85 205 9 185 205 9
187 206 9 187 209 9 213 209 9
173 210 9 212 213 9 66 215 9
103 215 9 207 215 9 208 215 9
204 216 9 207 216 9 198 218 9
203 218 9 106 226 9 63 227 9
103 238 9 96 245 9 142 247 9
179 247 9 139 258 9 172 277 9
161 280 9 74 303 9 210 307 9
223 307 9 209 308 9 210 308 9
223 308 9 206 309 9 226 309 9
228 310 9 228 311 9 93 313 9
176 314 9 203 314 9 204 314 9
230 314 9 177 315 9 201 318 9
232 319 9 232 322 9 54 323 9
201 323 9 53 324 9 203 324 9
53 325 9 96 325 9 95 326 9
229 327 9 228 331 9 226 332 9
227 332 9 220 334 9 215 336 9
219 336 9 63 343 9 86 343 9
152 74 10 173 74 10 332 84 10
143 88 10 326 88 10 355 88 10
324 90 10 357 90 10 358 93 10
361 96 10 178 102 10 164 110 10
320 113 10 324 119 10 356 120 10
326 121 10 352 122 10 349 125 10
341 125 10 81 130 10 132 130 10
68 133 10 124 133 10 137 133 10
95 134 10 96 135 10 120 135 10
101 142 10 147 145 10 114 148 10
117 153 10 144 153 10 144 154 10
61 160 10 137 160 10 132 163 10
64 165 10 97 165 10 65 166 10
96 166 10 92 168 10 71 170 10
199 186 10 202 186 10 190 191 10
214 196 10 184 201 10 217 201 10
171 202 10 178 204 10 184 204 10
166 205 10 93 206 10 72 209 10
73 209 10 164 209 10 214 209 10
70 210 10 214 210 10 100 211 10
68 212 10 101 212 10 164 212 10
173 212 10 181 212 10 167 217 10
178 217 10 105 218 10 171 219 10
202 219 10 64 235 10 69 242 10
177 244 10 73 244 10 96 244 10
[...]
POINT_DATA 14953
SCALARS scalars float
LOOKUP_TABLE default
255 255 255 255 255 255 255 255 255
255 255 255 255 255 255 255 255 255
255 255 255 255 255 255 255 255 255
255 255 255 255 255 255 255 255 255
255 255 255 255 255 255 255 255 255
255 255 255 255 255 255 255 255 255
255 255 255 255 255 255 255 255 255
255 255 255 255 255 255 255 255 255
255 255 255 255 255 255 255 255 255
255 255 255 255 255 255 255 255 255
255 255 255 255 255 255 255 255 255
255 255 255 255 255 255 255 255 255
255 255 255 255 255 255 255 255 255
255 255 255 255 255 255 255 255 255
255 255 255 255 255 255 255 255 255
255 255 255 255 255 255 255 255 255
255 255 255 255 255 255 255 255 255
255 255 255 255 255 255 255 255 255
255 255 255 255 255 255 255 255 255
255 255 255 255 255 255 255 255 255
255 255 255 255 255 255 255 255 255
255 255 255 255 255 255 255 255 255
255 255 255 255 255 255 255 255 255
255 255 255 255 255 255 255 255 255
255 255 255 255 255 255 255 255 255
255 255 255 255 255 255 255 255 255
255 255 255 255 255 255 255 255 255
255 255 255 255 255 255 255 255 255
255 255 255 255 255 255 255 255 255
255 255 255 255 255 255 255 255 255
255 255 255 255 255 255 255 255 255
255 255 255 255 255 255 255 255 255
255 255 255 255 255 255 255 255 255
255 255 255 255 255 255 255 255 255
255 255 255 255 255 255 255 255 255
255 255 255 255 255 255 255 255 255
255 255 255 255 255 255 255 255 255
255 255 255 255 255 255 255 255 255
255 255 255 255 255 255 255 255 255
255 255 255 255 255 255 255 255 255
255 255 255 255 255 255 255 255 255
255 255 255 255 255 255 255 255 255
255 255 255 255 255 255 255 255 255
255 255 255 255 255 255 255 255 255
255 255 255 255 255 255 255 255 255
255 255 255 255 255 255 255 255 255
255 255 255 255 255 255 255 255 255
255 255 255 255 255 255 255 255 255
255 255 255 255 255 255 255 255 255
255 255 255 255 255 255 255 255 255
255 255 255 255 255 255 255 255 255
255 255 255 255 255 255 255 255 255
255 255 255 255 255 255 255 255 255
255 255 255 255 255 255 255 255 255
255 255 255 255 255 255 255 255 255
255 255 255 255 255 255 255 255 255
255 255 255 255 255 255 255 255 255
255 255 255 255 255 255 255 255 255
255 255 255 255 255 255 255 255 255
255 255 255 255 255 255 255 255 255
255 255 255 255 255 255 255 255 255
255 255 255 255 255 255 255 255 255
255 255 255 255 255 255 255 255 255
255 255 255 255 255 255 255 255 255
255 255 255 255 255 255 255 255 255
255 255 255 255 255 255 255 255 255
255 255 255 255 255 255 255 255 255
255 255 255 255 255 255 255 255 255
255 255 255 255 255 255 255 255 255
255 255 255 255 255 255 255 255 255
255 255 255 255 255 255 255 255 255
255 255 255 255 255 255 255 255 255
255 255 255 255 255 255 255 255 255
255 255 255 255 255 255 255 255 255
255 255 255 255 255 255 255 255 255
255 255 255 255 255 255 255 255 255
255 255 255 255 255 255 255 255 255
255 255 255 255 255 255 255 255 255
255 255 255 255 255 255 255 255 255
255 255 255 255 255 255 255 255 255
255 255 255 255 255 255 255 255 255
255 255 255 255 255 255 255 255 255
255 255 255 255 255 255 255 255 255
255 255 255 255 255 255 255 255 255
255 255 255 255 255 255 255 255 255
255 255 255 255 255 255 255 255 255
255 255 255 255 255 255 255 255 255
255 255 255 255 255 255 255 255 255
255 255 255 255 255 255 255 255 255
255 255 255 255 255 255 255 255 255
255 255 255 255 255 255 255 255 255
255 255 255 255 255 255 255 255 255
255 255 255 255 255 255 255 255 255
255 255 255 255 255 255 255 255 255
255 255 255 255 255 255 255 255 255
255 255 255 255 255 255 255 255 255
255 255 255 255 255 255 255 255 255
255 255 255 255 255 255 255 255 255
255 255 255 255 255 255 255 255 255
255 255 255 255 255 255 255 255 255
255 255 255 255 255 255 255 255 255
255 255 255 255 255 255 255 255 255
255 255 255 255 255 255 255 255 255
255 255 255 255 255 255 255 255 255
255 255 255 255 255 255 255 255 255
255 255 255 255 255 255 255 255 255
255 255 255 255 255 255 255 255 255
255 255 255 255 255 255 255 255 255
255 255 255 255 255 255 255 255 255
255 255 255 255 255 255 255 255 255
255 255 255 255 255 255 255 255 255
255 255 255 255 255 255 255 255 255
255 255 255 255 255 255 255 255 255
255 255 255 255 255 255 255 255 255
255 255 255 255 255 255 255 255 255
255 255 255 255 255 255 255 255 255
255 255 255 255 255 255 255 255 255
255 255 255 255 255 255 255 255 255
255 255 255 255 255 255 255 255 255
255 255 255 255 255 255 255 255 255
255 255 255 255 255 255 255 255 255
255 255 255 255 255 255 255 255 255
255 255 255 255 255 255 255 255 255
255 255 255 255 255 255 255 255 255
255 255 255 255 255 255 255 255 255
255 255 255 255 255 255 255 255 255
255 255 255 255 255 255 255 255 255
255 255 255 255 255 255 255 255 255
255 255 255 255 255 255 255 255 255
255 255 255 255 255 255 255 255 255
255 255 255 255 255 255 255 255 255
255 255 255 255 255 255 255 255 255
255 255 255 255 255 255 255 255 255
255 255 255 255 255 255 255 255 255
255 255 255 255 255 255 255 255 255
255 255 255 255 255 255 255 255 255
255 255 255 255 255 255 255 255 255
255 255 255 255 255 255 255 255 255
255 255 255 255 255 255 255 255 255
255 255 255 255 255 255 255 255 255
255 255 255 255 255 255 255 255 255
255 255 255 255 255 255 255 255 255
255 255 255 255 255 255 255 255 255
255 255 255 255 255 255 255 255 255
255 255 255 255 255 255 255 255 255
255 255 255 255 255 255 255 255 255
255 255 255 255 255 255 255 255 255
255 255 255 255 255 255 255 255 255
255 255 255 255 255 255 255 255 255
255 255 255 255 255 255 255 255 255
255 255 255 255 255 255 255 255 255
255 255 255 255 255 255 255 255 255
255 255 255 255 255 255 255 255 255
255 255 255 255 255 255 255 255 255
255 255 255 255 255 255 255 255 255
255 255 255 255 255 255 255 255 255
255 255 255 255 255 255 255 255 255
255 255 255 255 255 255 255 255 255
255 255 255 255 255 255 255 255 255
255 255 255 255 255 255 255 255 255
255 255 255 255 255 255 255 255 255
255 255 255 255 255 255 255 255 255
255 255 255 255 255 255 255 255 255
255 255 255 255 255 255 255 255 255
255 255 255 255 255 255 255 255 255
255 255 255 255 255 255 255 255 255
255 255 255 255 255 255 255 255 255
255 255 255 255 255 255 255 255 255
255 255 255 255 255 255 255 255 255
255 255 255 255 255 255 255 255 255
255 255 255 255 255 255 255 255 255
255 255 255 255 255 255 255 255 255
255 255 255 255 255 255 255 255 255
255 255 255 255 255 255 255 255 255
255 255 255 255 255 255 255 255 255
255 255 255 255 255 255 255 255 255
255 255 255 255 255 255 255 255 255
255 255 255 255 255 255 255 255 255
255 255 255 255 255 255 255 255 255
255 255 255 255 255 255 255 255 255
255 255 255 255 255 255 255 255 255
255 255 255 255 255 255 255 255 255
255 255 255 255 255 255 255 255 255
255 255 255 255 255 255 255 255 255
255 255 255 255 255 255 255 255 255
255 255 255 255 255 255 255 255 255
255 255 255 255 255 255 255 255 255
255 255 255 255 255 255 255 255 255
255 255 255 255 255 255 255 255 255
255 255 255 255 255 255 255 255 255
255 255 255 255 255 255 255 255 255
255 255 255 255 255 255 255 255 255
255 255 255 255 255 255 255 255 255
255 255 255 255 255 255 255 255 255
255 255 255 255 255 255 255 255 255
255 255 255 255 255 255 255 255 255
255 255 255 255 255 255 255 255 255
255 255 255 255 255 255 255 255 255
255 255 255 255 255 255 255 255 255
255 255 255 255 255 255 255 255 255
255 255 255 255 255 255 255 255 255
255 255 255 255 255 255 255 255 255
255 255 255 255 255 255 255 255 255
255 255 255 255 255 255 255 255 255
255 255 255 255 255 255 255 255 255
255 255 255 255 255 255 255 255 255
255 255 255 255 255 255 255 255 255
255 255 255 255 255 255 255 255 255
255 255 255 255 255 255 255 255 255
255 255 255 255 255 255 255 255 255
255 255 255 255 255 255 255 255 255
255 255 255 255 255 255 255 255 255
255 255 255 255 255 255 255 255 255
255 255 255 255 255 255 255 255 255
255 255 255 255 255 255 255 255 255
255 255 255 255 255 255 255 255 255
255 255 255 255 255 255 255 255 255
255 255 255 255 255 255 255 255 255
255 255 255 255 255 255 255 255 255
255 255 255 255 255 255 255 255 255
255 255 255 255 255 255 255 255 255
255 255 255 255 255 255 255 255 255
255 255 255 255 255 255 255 255 255
255 255 255 255 255 255 255 255 255
255 255 255 255 255 255 255 255 255
255 255 255 255 255 255 255 255 255
255 255 255 255 255 255 255 255 255
255 255 255 255 255 255 255 255 255
255 255 255 255 255 255 255 255 255
255 255 255 255 255 255 255 255 255
255 255 255 255 255 255 255 255 255
255 255 255 255 255 255 255 255 255
255 255 255 255 255 255 255 255 255
255 255 255 255 255 255 255 255 255
255 255 255 255 255 255 255 255 255
255 255 255 255 255 255 255 255 255
255 255 255 255 255 255 255 255 255
255 255 255 255 255 255 255 255 255
255 255 255 255 255 255 255 255 255
255 255 255 255 255 255 255 255 255
255 255 255 255 255 255 255 255 255
255 255 255 255 255 255 255 255 255
255 255 255 255 255 255 255 255 255
255 255 255 255 255 255 255 255 255
255 255 255 255 255 255 255 255 255
255 255 255 255 255 255 255 255 255
255 255 255 255 255 255 255 255 255
255 255 255 255 255 255 255 255 255
255 255 255 255 255 255 255 255 255
255 255 255 255 255 255 255 255 255
255 255 255 255 255 255 255 255 255
255 255 255 255 255 255 255 255 255
255 255 255 255 255 255 255 255 255
255 255 255 255 255 255 255 255 255
255 255 255 255 255 255 255 255 255
255 255 255 255 255 255 255 255 255
255 255 255 255 255 255 255 255 255
255 255 255 255 255 255 255 255 255
255 255 255 255 255 255 255 255 255
255 255 255 255 255 255 255 255 255
255 255 255 255 255 255 255 255 255
255 255 255 255 255 255 255 255 255
255 255 255 255 255 255 255 255 255
255 255 255 255 255 255 255 255 255
255 255 255 255 255 255 255 255 255
255 255 255 255 255 255 255 255 255
255 255 255 255 255 255 255 255 255
255 255 255 255 255 255 255 255 255
255 255 255 255 255 255 255 255 255
255 255 255 255 255 255 255 255 255
255 255 255 255 255 255 255 255 255
255 255 255 255 255 255 255 255 255
255 255 255 255 255 255 255 255 255
255 255 255 255 255 255 255 255 255
255 255 255 255 255 255 255 255 255
255 255 255 255 255 255 255 255 255
255 255 255 255 255 255 255 255 255
255 255 255 255 255 255 255 255 255
255 255 255 255 255 255 255 255 255
255 255 255 255 255 255 255 255 255
255 255 255 255 255 255 255 255 255
255 255 255 255 255 255 255 255 255
255 255 255 255 255 255 255 255 255
255 255 255 255 255 255 255 255 255
255 255 255 255 255 255 255 255 255
255 255 255 255 255 255 255 255 255
255 255 255 255 255 255 255 255 255
255 255 255 255 255 255 255 255 255
255 255 255 255 255 255 255 255 255
255 255 255 255 255 255 255 255 255
255 255 255 255 255 255 255 255 255
255 255 255 255 255 255 255 255 255
255 255 255 255 255 255 255 255 255
255 255 255 255 255 255 255 255 255
255 255 255 255 255 255 255 255 255
255 255 255 255 255 255 255 255 255
255 255 255 255 255 255 255 255 255
255 255 255 255 255 255 255 255 255
255 255 255 255 255 255 255 255 255
255 255 255 255 255 255 255 255 255
255 255 255 255 255 255 255 255 255
255 255 255 255 255 255 255 255 255
255 255 255 255 255 255 255 255 255
255 255 255 255 255 255 255 255 255
255 255 255 255 255 255 255 255 255
255 255 255 255 255 255 255 255 255
255 255 255 255 255 255 255 255 255
255 255 255 255 255 255 255 255 255
255 255 255 255 255 255 255 255 255
255 255 255 255 255 255 255 255 255
255 255 255 255 255 255 255 255 255
255 255 255 255 255 255 255 255 255
255 255 255 255 255 255 255 255 255
255 255 255 255 255 255 255 255 255
255 255 255 255 255 255 255 255 255
255 255 255 255 255 255 255 255 255
255 255 255 255 255 255 255 255 255
255 255 255 255 255 255 255 255 255
255 255 255 255 255 255 255 255 255
255 255 255 255 255 255 255 255 255
255 255 255 255 255 255 255 255 255
255 255 255 255 255 255 255 255 255
255 255 255 255 255 255 255 255 255
255 255 255 255 255 255 255 255 255
255 255 255 255 255 255 255 255 255
255 255 255 255 255 255 255 255 255
255 255 255 255 255 255 255 255 255
255 255 255 255 255 255 255 255 255
255 255 255 255 255 255 255 255 255
255 255 255 255 255 255 255 255 255
255 255 255 255 255 255 255 255 255
255 255 255 255 255 255 255 255 255
255 255 255 255 255 255 255 255 255
255 255 255 255 255 255 255 255 255
255 255 255 255 255 255 255 255 255
255 255 255 255 255 255 255 255 255
255 255 255 255 255 255 255 255 255
255 255 255 255 255 255 255 255 255
255 255 255 255 255 255 255 255 255
255 255 255 255 255 255 255 255 255
255 255 255 255 255 255 255 255 255
255 255 255 255 255 255 255 255 255
255 255 255 255 255 255 255 255 255
255 255 255 255 255 255 255 255 255
255 255 255 255 255 255 255 255 255
255 255 255 255 255 255 255 255 255
255 255 255 255 255 255 255 255 255
255 255 255 255 255 255 255 255 255
255 255 255 255 255 255 255 255 255
255 255 255 255 255 255 255 255 255
255 255 255 255 255 255 255 255 255
255 255 255 255 255 255 255 255 255
255 255 255 255 255 255 255 255 255
255 255 255 255 255 255 255 255 255
255 255 255 255 255 255 255 255 255
255 255 255 255 255 255 255 255 255
255 255 255 255 255 255 255 255 255
255 255 255 255 255 255 255 255 255
255 255 255 255 255 255 255 255 255
255 255 255 255 255 255 255 255 255
255 255 255 255 255 255 255 255 255
255 255 255 255 255 255 255 255 255
255 255 255 255 255 255 255 255 255
255 255 255 255 255 255 255 255 255
255 255 255 255 255 255 255 255 255
255 255 255 255 255 255 255 255 255
255 255 255 255 255 255 255 255 255
255 255 255 255 255 255 255 255 255
255 255 255 255 255 255 255 255 255
255 255 255 255 255 255 255 255 255
255 255 255 255 255 255 255 255 255
255 255 255 255 255 255 255 255 255
255 255 255 255 255 255 255 255 255
255 255 255 255 255 255 255 255 255
255 255 255 255 255 255 255 255 255
255 255 255 255 255 255 255 255 255
255 255 255 255 255 255 255 255 255
255 255 255 255 255 255 255 255 255
255 255 255 255 255 255 255 255 255
255 255 255 255 255 255 255 255 255
255 255 255 255 255 255 255 255 255
255 255 255 255 255 255 255 255 255
255 255 255 255 255 255 255 255 255
255 255 255 255 255 255 255 255 255
255 255 255 255 255 255 255 255 255
255 255 255 255 255 255 255 255 255
255 255 255 255 255 255 255 255 255
255 255 255 255 255 255 255 255 255
255 255 255 255 255 255 255 255 255
255 255 255 255 255 255 255 255 255
255 255 255 255 255 255 255 255 255
255 255 255 255 255 255 255 255 255
255 255 255 255 255 255 255 255 255
255 255 255 255 255 255 255 255 255
255 255 255 255 255 255 255 255 255
255 255 255 255 255 255 255 255 255
255 255 255 255 255 255 255 255 255
255 255 255 255 255 255 255 255 255
255 255 255 255 255 255 255 255 255
255 255 255 255 255 255 255 255 255
255 255 255 255 255 255 255 255 255
255 255 255 255 255 255 255 255 255
255 255 255 255 255 255 255 255 255
255 255 255 255 255 255 255 255 255
255 255 255 255 255 255 255 255 255
255 255 255 255 255 255 255 255 255
255 255 255 255 255 255 255 255 255
255 255 255 255 255 255 255 255 255
255 255 255 255 255 255 255 255 255
255 255 255 255 255 255 255 255 255
255 255 255 255 255 255 255 255 255
255 255 255 255 255 255 255 255 255
255 255 255 255 255 255 255 255 255
255 255 255 255 255 255 255 255 255
255 255 255 255 255 255 255 255 255
255 255 255 255 255 255 255 255 255
255 255 255 255 255 255 255 255 255
255 255 255 255 255 255 255 255 255
255 255 255 255 255 255 255 255 255
255 255 255 255 255 255 255 255 255
255 255 255 255 255 255 255 255 255
255 255 255 255 255 255 255 255 255
255 255 255 255 255 255 255 255 255
255 255 255 255 255 255 255 255 255
255 255 255 255 255 255 255 255 255
255 255 255 255 255 255 255 255 255
255 255 255 255 255 255 255 255 255
255 255 255 255 255 255 255 255 255
255 255 255 255 255 255 255 255 255
255 255 255 255 255 255 255 255 255
255 255 255 255 255 255 255 255 255
255 255 255 255 255 255 255 255 255
255 255 255 255 255 255 255 255 255
255 255 255 255 255 255 255 255 255
255 255 255 255 255 255 255 255 255
255 255 255 255 255 255 255 255 255
255 255 255 255 255 255 255 255 255
255 255 255 255 255 255 255 255 255
255 255 255 255 255 255 255 255 255
255 255 255 255 255 255 255 255 255
255 255 255 255 255 255 255 255 255
255 255 255 255 255 255 255 255 255
255 255 255 255 255 255 255 255 255
255 255 255 255 255 255 255 255 255
255 255 255 255 255 255 255 255 255
255 255 255 255 255 255 255 255 255
255 255 255 255 255 255 255 255 255
255 255 255 255 255 255 255 255 255
255 255 255 255 255 255 255 255 255
255 255 255 255 255 255 255 255 255
255 255 255 255 255 255 255 255 255
255 255 255 255 255 255 255 255 255
255 255 255 255 255 255 255 255 255
255 255 255 255 255 255 255 255 255
255 255 255 255 255 255 255 255 255
255 255 255 255 255 255 255 255 255
255 255 255 255 255 255 255 255 255
255 255 255 255 255 255 255 255 255
255 255 255 255 255 255 255 255 255
255 255 255 255 255 255 255 255 255
255 255 255 255 255 255 255 255 255
255 255 255 255 255 255 255 255 255
255 255 255 255 255 255 255 255 255
255 255 255 255 255 255 255 255 255
255 255 255 255 255 255 255 255 255
255 255 255 255 255 255 255 255 255
255 255 255 255 255 255 255 255 255
255 255 255 255 255 255 255 255 255
255 255 255 255 255 255 255 255 255
255 255 255 255 255 255 255 255 255
255 255 255 255 255 255 255 255 255
255 255 255 255 255 255 255 255 255
255 255 255 255 255 255 255 255 255
255 255 255 255 255 255 255 255 255
255 255 255 255 255 255 255 255 255
255 255 255 255 255 255 255 255 255
255 255 255 255 255 255 255 255 255
255 255 255 255 255 255 255 255 255
255 255 255 255 255 255 255 255 255
255 255 255 255 255 255 255 255 255
255 255 255 255 255 255 255 255 255
255 255 255 255 255 255 255 255 255
255 255 255 255 255 255 255 255 255
255 255 255 255 255 255 255 255 255
255 255 255 255 255 255 255 255 255
255 255 255 255 255 255 255 255 255
255 255 255 255 255 255 255 255 255
255 255 255 255 255 255 255 255 255
255 255 255 255 255 255 255 255 255
255 255 255 255 255 255 255 255 255
255 255 255 255 255 255 255 255 255
255 255 255 255 255 255 255 255 255
255 255 255 255 255 255 255 255 255
255 255 255 255 255 255 255 255 255
255 255 255 255 255 255 255 255 255
255 255 255 255 255 255 255 255 255
255 255 255 255 255 255 255 255 255
255 255 255 255 255 255 255 255 255
255 255 255 255 255 255 255 255 255
255 255 255 255 255 255 255 255 255
255 255 255 255 255 255 255 255 255
255 255 255 255 255 255 255 255 255
255 255 255 255 255 255 255 255 255
255 255 255 255 255 255 255 255 255
255 255 255 255 255 255 255 255 255
255 255 255 255 255 255 255 255 255
255 255 255 255 255 255 255 255 255
255 255 255 255 255 255 255 255 255
255 255 255 255 255 255 255 255 255
255 255 255 255 255 255 255 255 255
255 255 255 255 255 255 255 255 255
255 255 255 255 255 255 255 255 255
255 255 255 255 255 255 255 255 255
255 255 255 255 255 255 255 255 255
255 255 255 255 255 255 255 255 255
255 255 255 255 255 255 255 255 255
255 255 255 255 255 255 255 255 255
255 255 255 255 255 255 255 255 255
255 255 255 255 255 255 255 255 255
255 255 255 255 255 255 255 255 255
255 255 255 255 255 255 255 255 255
255 255 255 255 255 255 255 255 255
255 255 255 255 255 255 255 255 255
255 255 255 255 255 255 255 255 255
255 255 255 255 255 255 255 255 255
255 255 255 255 255 255 255 255 255
255 255 255 255 255 255 255 255 255
255 255 255 255 255 255 255 255 255
255 255 255 255 255 255 255 255 255
255 255 255 255 255 255 255 255 255
255 255 255 255 255 255 255 255 255
255 255 255 255 255 255 255 255 255
255 255 255 255 255 255 255 255 255
255 255 255 255 255 255 255 255 255
255 255 255 255 255 255 255 255 255
255 255 255 255 255 255 255 255 255
255 255 255 255 255 255 255 255 255
255 255 255 255 255 255 255 255 255
255 255 255 255 255 255 255 255 255
255 255 255 255 255 255 255 255 255
255 255 255 255 255 255 255 255 255
255 255 255 255 255 255 255 255 255
255 255 255 255 255 255 255 255 255
255 255 255 255 255 255 255 255 255
255 255 255 255 255 255 255 255 255
255 255 255 255 255 255 255 255 255
255 255 255 255 255 255 255 255 255
255 255 255 255 255 255 255 255 255
255 255 255 255 255 255 255 255 255
255 255 255 255 255 255 255 255 255
255 255 255 255 255 255 255 255 255
255 255 255 255 255 255 255 255 255
255 255 255 255 255 255 255 255 255