# vtk DataFile Version 4.0
vtk output
ASCII
DATASET POLYDATA
POINTS 1303 float
162 69 0 150 72 0 159 72 0 
165 72 0 174 72 0 147 75 0 
147 75 3 174 75 3 177 75 0 
177 75 3 144 78 0 183 84 0 
342 84 0 144 87 0 330 87 3 
333 87 0 141 90 0 144 93 0 
357 96 0 183 99 0 324 99 0 
144 102 0 360 102 0 147 105 0 
147 105 3 150 105 3 321 108 0 
156 111 0 171 111 0 171 108 3 
324 111 0 357 114 0 330 123 3 
333 123 0 348 123 0 72 132 0 
87 132 0 63 141 0 99 144 0 
60 150 0 60 156 3 63 159 0 
99 159 0 72 168 0 90 168 3 
90 168 0 78 171 0 87 207 0 
78 210 0 66 216 3 66 219 0 
102 219 0 105 225 0 66 234 0 
102 234 0 153 240 0 168 240 0 
93 243 0 81 246 0 177 249 0 
141 255 0 180 261 0 144 264 0 
144 267 0 168 276 0 159 279 0 
66 306 0 81 306 0 57 315 0 
93 318 0 216 321 3 54 324 0 
57 333 0 93 333 0 66 342 0 
84 342 3 84 342 0 75 345 0 
183 84 6 333 84 6 348 84 6 
321 96 6 174 108 6 321 114 6 
66 135 6 96 135 6 66 138 6 
123 138 6 138 138 6 120 150 6 
135 156 6 96 162 6 96 165 6 
93 165 6 195 192 6 210 198 6 
75 207 6 93 207 6 192 210 6 
75 246 6 180 267 6 153 279 6 
168 279 6 60 309 6 60 312 6 
207 315 6 228 321 6 216 324 6 
207 327 6 225 327 6 90 336 6 
90 339 6 87 339 6 180 87 9 
183 90 9 153 108 9 162 111 9 
360 114 9 81 129 9 69 132 9 
120 135 9 123 135 9 63 138 9 
120 138 9 102 150 9 117 150 9 
144 150 9 99 153 9 60 159 9 
72 171 9 207 189 9 189 192 9 
186 201 9 216 204 9 99 210 9 
189 213 9 204 216 9 99 243 9 
180 249 9 144 273 9 177 273 9 
75 303 9 63 306 9 213 306 9 
219 306 9 57 312 9 177 315 9 
228 315 9 93 321 9 96 324 9 
231 324 9 54 333 9 66 345 9 
162 72 12 165 75 12 180 84 12 
360 96 12 159 108 12 324 117 12 
354 120 12 129 129 12 66 135 12 
144 135 12 63 141 12 123 162 12 
138 162 12 96 165 12 72 168 12 
189 189 12 72 210 12 189 213 12 
183 216 12 189 216 12 165 219 12 
93 246 12 216 303 12 183 306 12 
60 309 12 57 315 12 165 315 12 
177 318 12 186 321 12 90 339 12 
66 342 12 78 75 15 159 75 15 
165 75 15 150 81 15 327 84 15 
336 84 15 147 87 15 327 87 15 
330 87 15 351 87 15 78 90 15 
90 90 15 147 93 15 174 102 15 
291 111 15 303 111 15 321 111 15 
336 123 15 123 129 15 321 129 15 
333 129 15 90 132 15 117 135 15 
99 141 15 258 141 15 261 141 15 
150 144 15 267 144 15 333 144 15 
60 147 15 111 147 15 252 153 15 
114 156 15 315 159 15 321 162 15 
135 165 15 306 165 15 69 168 15 
90 168 15 75 171 15 84 171 15 
339 171 15 318 177 15 348 183 15 
165 198 15 183 198 15 78 207 15 
69 213 15 186 213 15 102 216 15 
186 216 15 105 222 15 180 222 15 
198 222 15 243 225 15 234 231 15 
102 237 15 252 237 15 69 240 15 
147 243 15 141 252 15 144 270 15 
174 300 15 210 303 15 222 303 15 
84 306 15 162 312 15 93 315 15 
198 315 15 162 318 15 54 321 15 
264 321 15 267 321 15 273 324 15 
198 327 15 210 339 15 222 339 15 
264 339 15 63 342 15 84 342 15 
69 345 15 39 357 15 39 369 15 
54 369 15 75 72 18 93 72 18 
324 78 18 321 81 18 99 84 18 
174 84 18 336 87 18 150 90 18 
75 93 18 153 99 18 315 102 18 
159 102 18 324 108 18 285 111 18 
324 111 18 288 114 18 357 114 18 
282 120 18 333 120 18 336 123 18 
135 126 18 336 126 18 288 129 18 
306 129 18 75 132 18 249 147 18 
318 147 18 246 150 18 150 153 18 
312 156 18 324 159 18 144 162 18 
261 165 18 324 165 18 300 168 18 
330 171 18 348 171 18 312 180 18 
207 183 18 315 183 18 351 186 18 
216 189 18 180 195 18 339 195 18 
189 219 18 66 222 18 186 222 18 
207 222 18 240 222 18 252 225 18 
228 234 18 156 240 18 165 240 18 
255 240 18 84 246 18 177 249 18 
243 249 18 141 261 18 180 261 18 
153 276 18 168 276 18 177 297 18 
183 300 18 234 309 18 198 312 18 
93 318 18 237 324 18 255 327 18 
252 330 18 90 336 18 264 342 18 
273 342 18 267 345 18 45 348 18 
54 351 18 42 354 18 51 354 18 
57 372 18 327 78 21 156 87 21 
171 90 21 354 93 21 162 99 21 
309 99 21 357 99 21 318 108 21 
333 120 21 309 126 21 267 135 21 
111 138 21 246 153 21 303 156 21 
321 156 21 120 165 21 342 165 21 
318 183 21 321 183 21 189 186 21 
327 189 21 90 210 21 153 210 21 
219 213 21 69 219 21 159 222 21 
231 222 21 165 228 21 180 228 21 
96 240 21 168 243 21 228 303 21 
201 306 21 204 306 21 195 309 21 
234 312 21 273 315 21 195 321 21 
282 324 21 165 330 21 183 333 21 
252 333 21 231 336 21 75 342 21 
81 339 21 270 345 21 63 363 21 
75 66 24 93 66 24 318 75 24 
66 78 24 309 81 24 339 81 24 
306 87 24 102 90 24 342 90 24 
351 93 24 75 99 24 93 99 24 
288 102 24 306 102 24 312 111 24 
324 111 24 315 114 24 279 117 24 
348 117 24 318 120 24 342 120 24 
315 123 24 312 126 24 114 132 24 
147 132 24 255 132 24 345 132 24 
249 135 24 288 135 24 243 144 24 
66 147 24 279 147 24 312 147 24 
315 150 24 66 153 24 96 153 24 
303 153 24 111 156 24 150 156 24 
279 156 24 330 159 24 276 162 24 
297 162 24 342 162 24 78 165 24 
84 165 24 249 165 24 267 168 24 
303 183 24 186 186 24 357 186 24 
324 192 24 354 192 24 159 195 24 
345 198 24 96 216 24 237 216 24 
231 219 24 189 222 24 69 228 24 
225 228 24 177 231 24 96 234 24 
78 240 24 261 240 24 162 243 24 
258 246 24 231 249 24 147 252 24 
174 252 24 249 252 24 150 270 24 
165 297 24 159 303 24 204 303 24 
72 309 24 156 309 24 198 309 24 
237 312 24 261 312 24 255 315 24 
195 324 24 249 324 24 60 327 24 
90 327 24 234 333 24 69 336 24 
216 342 24 282 342 24 48 345 24 
255 345 24 273 348 24 30 354 24 
30 372 24 63 372 24 51 381 24 
96 66 27 102 72 27 105 81 27 
303 99 27 318 111 27 333 114 24 
345 114 27 333 117 27 276 120 27 
339 123 27 138 126 27 279 129 27 
150 138 27 291 138 27 75 141 27 
87 141 27 240 153 27 303 153 27 
90 156 27 333 156 27 78 162 24 
297 165 27 294 168 27 258 171 27 
192 183 27 186 189 27 312 189 27 
336 201 27 87 216 27 153 219 27 
255 219 27 210 222 27 189 222 27 
75 231 27 90 237 27 156 249 27 
240 255 27 150 264 27 168 267 27 
183 294 27 192 300 27 159 306 27 
201 306 27 195 309 27 69 315 27 
81 315 27 84 330 27 168 333 27 
246 333 27 72 336 24 75 336 27 
177 333 27 201 336 27 231 336 27 
285 339 27 45 342 27 36 345 27 
57 345 27 63 351 27 66 72 30 
66 93 30 96 99 30 345 102 27 
339 105 30 345 147 30 81 150 30 
333 159 30 120 165 30 141 165 30 
267 171 30 357 171 30 213 186 30 
183 192 30 219 192 30 327 198 30 
153 201 30 345 201 30 156 225 30 
249 255 30 195 303 30 156 306 30 
234 309 30 285 321 30 75 324 30 
159 327 30 237 327 30 177 336 30 
207 339 30 225 339 30 273 351 30 
36 381 30 57 381 30 75 63 33 
333 72 33 99 99 33 282 102 33 
129 126 33 276 135 33 282 135 33 
111 144 33 150 150 33 252 171 33 
204 183 33 303 186 33 327 198 33 
219 210 33 198 222 33 165 231 33 
222 243 33 192 300 33 216 300 33 
162 327 33 198 327 33 162 330 33 
177 333 33 30 348 33 258 351 33 
27 372 33 276 126 36 132 129 36 
141 162 36 162 192 36 216 192 36 
213 216 36 183 228 36 198 321 36 
195 324 36 246 339 36 39 342 36 
66 372 36 90 63 39 72 66 39 
93 66 39 66 72 39 102 72 39 
318 72 39 330 72 39 102 75 39 
105 78 39 342 81 39 306 84 39 
342 84 39 345 87 39 66 93 39 
102 93 39 306 96 39 291 99 39 
303 99 39 345 99 39 75 99 39 
78 102 39 90 102 39 279 108 39 
333 111 39 315 114 39 318 111 39 
315 117 39 321 117 39 333 117 39 
318 120 39 276 123 39 279 126 39 
345 126 39 279 129 39 126 132 39 
135 132 39 252 132 39 270 132 39 
120 135 39 123 135 39 138 135 39 
141 135 39 120 138 39 141 138 39 
291 138 39 279 141 39 303 138 39 
114 144 39 147 144 39 240 144 39 
309 147 39 345 147 39 117 153 39 
120 156 39 141 156 39 240 156 39 
333 156 39 120 159 39 141 159 39 
279 159 39 132 162 39 294 162 39 
336 162 39 348 162 39 249 168 39 
252 168 39 255 171 39 267 171 39 
357 171 39 294 174 39 198 186 39 
303 186 39 357 189 39 165 192 39 
189 192 39 192 192 39 210 192 39 
213 192 39 318 189 39 189 195 39 
186 198 39 216 201 39 333 201 39 
345 201 39 216 204 39 153 207 39 
153 213 39 213 213 39 189 216 39 
192 213 39 234 216 39 252 216 39 
189 219 39 198 219 39 201 219 39 
261 225 39 165 228 39 222 228 39 
174 231 39 222 240 39 225 243 39 
261 243 39 225 246 39 234 252 39 
237 255 39 249 255 39 174 294 39 
180 297 39 186 297 39 159 306 39 
195 306 39 210 306 39 225 309 39 
228 309 39 228 312 39 258 312 39 
276 312 39 156 315 39 231 315 39 
201 318 39 195 321 39 285 321 39 
159 324 39 246 324 39 231 327 39 
204 330 39 168 333 39 183 333 39 
213 336 39 219 336 39 246 336 39 
285 339 39 42 342 39 51 342 39 
36 345 39 39 345 39 54 345 39 
57 345 39 255 348 39 258 348 39 
261 351 39 273 351 39 27 357 39 
66 357 39 27 369 39 66 369 39 
63 372 39 30 375 39 36 381 39 
57 381 39 147 75 0 177 75 0 
120 135 9 189 216 12 336 123 15 
186 216 15 162 222 15 183 222 15 
324 111 18 336 123 18 336 126 18 
186 222 18 198 312 18 189 327 18 
189 327 18 321 108 21 333 120 21 
333 120 21 303 156 21 231 222 21 
96 240 21 195 309 21 309 81 24 
351 93 24 333 117 24 333 117 24 
303 153 24 330 159 24 276 162 24 
354 192 24 96 216 24 96 237 24 
258 246 24 282 342 24 318 111 27 
333 114 24 333 117 27 339 123 27 
333 156 27 198 327 33 195 324 36 
171 111 0 231 318 9 90 339 12 
84 165 24 162 318 15 231 324 9 
60 309 6 201 306 27 192 300 27 
231 336 21 219 306 9 60 309 12 
180 300 15 162 312 15 165 75 15 
147 87 15 90 339 6 66 135 12 
96 165 6 201 324 39 96 165 12 
66 135 6 72 339 24 159 75 15 
162 330 27 192 300 33 201 306 21 
231 336 27 78 339 24 66 153 24 
60 327 24 84 165 24 162 318 15 
180 300 15 159 75 15 219 306 9 
66 135 12 78 339 24 60 309 12 
183 198 15 180 195 18 165 75 15 
231 336 27 201 306 27 198 312 30 
198 312 30 192 213 39 198 222 15 
162 330 33 168 333 39 195 306 39 
63 141 0 57 315 0 90 339 6 
90 339 6 84 342 3 96 165 6 
96 165 6 90 168 3 102 93 39 
336 162 39 336 162 39 213 306 9 
213 306 9 96 165 12 150 105 3 
159 327 30 159 327 30 162 327 33 
174 300 15 78 165 24 231 318 9 
72 339 24 117 135 15 327 186 18 
327 186 18 321 183 21 63 138 9 
63 138 9 63 141 12 57 312 9 
57 312 9 57 315 12 177 336 30 
177 336 30 177 333 27 177 333 33 
147 93 15 177 315 9 177 315 9 
177 312 12 210 303 15 324 183 21 
336 162 39 330 168 21 318 189 39 
84 342 15 75 342 21 81 339 21 
177 297 18 183 300 18 90 168 15 
189 219 18 216 318 6 99 147 9 
93 66 39 96 66 27 96 99 30 
330 168 21 318 120 39 318 120 24 
[...]
POINT_DATA 1303
SCALARS scalars float
LOOKUP_TABLE default
255 255 255 255 255 255 255 255 255 
255 255 255 255 255 255 255 255 255 
255 255 255 255 255 255 255 255 255 
255 255 255 255 255 255 255 255 255 
255 255 255 255 255 255 255 255 255 
255 255 255 255 255 255 255 255 255 
255 255 255 255 255 255 255 255 255 
255 255 255 255 255 255 255 255 255 
255 255 255 255 255 255 255 255 255 
255 255 255 255 255 255 255 255 255 
255 255 255 255 255 255 255 255 255 
255 255 255 255 255 255 255 255 255 
255 255 255 255 255 255 255 255 255 
255 255 255 255 255 255 255 255 255 
255 255 255 255 255 255 255 255 255 
255 255 255 255 255 255 255 255 255 
255 255 255 255 255 255 255 255 255 
255 255 255 255 255 255 255 255 255 
255 255 255 255 255 255 255 255 255 
255 255 255 255 255 255 255 255 255 
255 255 255 255 255 255 255 255 255 
255 255 255 255 255 255 255 255 255 
255 255 255 255 255 255 255 255 255 
255 255 255 255 255 255 255 255 255 
255 255 255 255 255 255 255 255 255 
255 255 255 255 255 255 255 255 255 
255 255 255 255 255 255 255 255 255 
255 255 255 255 255 255 255 255 255 
255 255 255 255 255 255 255 255 255 
255 255 255 255 255 255 255 255 255 
255 255 255 255 255 255 255 255 255 
255 255 255 255 255 255 255 255 255 
255 255 255 255 255 255 255 255 255 
255 255 255 255 255 255 255 255 255 
255 255 255 255 255 255 255 255 255 
255 255 255 255 255 255 255 255 255 
255 255 255 255 255 255 255 255 255 
255 255 255 255 255 255 255 255 255 
255 255 255 255 255 255 255 255 255 
255 255 255 255 255 255 255 255 255 
255 255 255 255 255 255 255 255 255 
255 255 255 255 255 255 255 255 255 
255 255 255 255 255 255 255 255 255 
255 255 255 255 255 255 255 255 255 
255 255 255 255 255 255 255 255 255 
255 255 255 255 255 255 255 255 255 
255 255 255 255 255 255 255 255 255 
255 255 255 255 255 255 255 255 255 
255 255 255 255 255 255 255 255 255 
255 255 255 255 255 255 255 255 255 
255 255 255 255 255 255 255 255 255 
255 255 255 255 255 255 255 255 255 
255 255 255 255 255 255 255 255 255 
255 255 255 255 255 255 255 255 255 
255 255 255 255 255 255 255 255 255 
255 255 255 255 255 255 255 255 255 
255 255 255 255 255 255 255 255 255 
255 255 255 255 255 255 255 255 255 
255 255 255 255 255 255 255 255 255 
255 255 255 255 255 255 255 255 255 
255 255 255 255 255 255 255 255 255 
255 255 255 255 255 255 255 255 255 
255 255 255 255 255 255 255 255 255 
255 255 255 255 255 255 255 255 255 
255 255 255 255 255 255 255 255 255 
255 255 255 255 255 255 255 255 255 
255 255 255 255 255 255 255 255 255 
255 255 255 255 255 255 255 255 255 
255 255 255 255 255 255 255 255 255 
255 255 255 255 255 255 255 255 255 
255 255 255 255 255 255 255 255 255 
255 255 255 255 255 255 255 255 255 
255 255 255 255 255 255 255 255 255 
255 255 255 255 255 255 255 255 255 
255 255 255 255 255 255 255 255 255 
255 255 255 255 255 255 255 255 255 
255 255 255 255 255 255 255 255 255 
255 255 255 255 255 255 255 255 255 
255 255 255 255 255 255 255 255 255 
255 255 255 255 255 255 255 255 255 
255 255 255 255 255 255 255 255 255 
255 255 255 255 255 255 255 255 255 
255 255 255 255 255 255 255 255 255 
255 255 255 255 255 255 255 255 255 
255 255 255 255 255 255 255 255 255 
255 255 255 255 255 255 255 255 255 
255 255 255 255 255 255 255 255 255 
255 255 255 255 255 255 255 255 255 
255 255 255 255 255 255 255 255 255 
255 255 255 255 255 255 255 255 255 
255 255 255 255 255 255 255 255 255 
255 255 255 255 255 255 255 255 255 
255 255 255 255 255 255 255 255 255 
255 255 255 255 255 255 255 255 255 
255 255 255 255 255 255 255 255 255 
255 255 255 255 255 255 255 255 255 
255 255 255 255 255 255 255 255 255 
255 255 255 255 255 255 255 255 255 
255 255 255 255 255 255 255 255 255 
255 255 255 255 255 255 255 255 255 
255 255 255 255 255 255 255 255 255 
255 255 255 255 255 255 255 255 255 
255 255 255 255 255 255 255 255 255 
255 255 255 255 255 255 255 255 255 
255 255 255 255 255 255 255 255 255 
255 255 255 255 255 255 255 255 255 
255 255 255 255 255 255 255 255 255 
255 255 255 255 255 255 255 255 255 
255 255 255 255 255 255 255 255 255 
255 255 255 255 255 255 255 255 255 
255 255 255 255 255 255 255 255 255 
255 255 255 255 255 255 255 255 255 
255 255 255 255 255 255 255 255 255 
255 255 255 255 255 255 255 255 255 
255 255 255 255 255 255 255 255 255 
255 255 255 255 255 255 255 255 255 
255 255 255 255 255 255 255 255 255 
255 255 255 255 255 255 255 255 255 
255 255 255 255 255 255 255 255 255 
255 255 255 255 255 255 255 255 255 
255 255 255 255 255 255 255 255 255 
255 255 255 255 255 255 255 255 255 
255 255 255 255 255 255 255 255 255 
255 255 255 255 255 255 255 255 255 
255 255 255 255 255 255 255 255 255 
255 255 255 255 255 255 255 255 255 
255 255 255 255 255 255 255 255 255 
255 255 255 255 255 255 255 255 255 
255 255 255 255 255 255 255 255 255 
255 255 255 255 255 255 255 255 255 
255 255 255 255 255 255 255 255 255 
255 255 255 255 255 255 255 255 255 
255 255 255 255 255 255 255 255 255 
255 255 255 255 255 255 255 255 255 
255 255 255 255 255 255 255 255 255 
255 255 255 255 255 255 255 255 255 
255 255 255 255 255 255 255 255 255 
255 255 255 255 255 255 255 255 255 
255 255 255 255 255 255 255 255 255 
255 255 255 255 255 255 255 255 255 
255 255 255 255 255 255 255 255 255 
255 255 255 255 255 255 255 255 255 
255 255 255 255 255 255 255 255 255 
255 255 255 255 255 255 255 255 255 
255 255 255 255 255 255 255 
VECTORS vectors float
0 -42.5 85 -42.5 -42.5 85 0 -42.5 0 
0 -42.5 0 42.5 -42.5 85 -42.5 -42.5 0 
-42.5 -42.5 42.5 0 -42.5 0 42.5 -42.5 0 
42.5 -42.5 42.5 -42.5 -42.5 85 42.5 -42.5 0 
42.5 -42.5 0 -42.5 0 0 -42.5 -42.5 -42.5 
-42.5 -42.5 0 -42.5 0 85 -42.5 0 0 
42.5 -42.5 0 42.5 42.5 85 -42.5 0 0 
-42.5 42.5 85 42.5 -42.5 0 -42.5 42.5 0 
-42.5 42.5 42.5 0 42.5 0 -42.5 42.5 0 
-42.5 42.5 0 42.5 42.5 85 0 42.5 0 
-42.5 0 0 42.5 42.5 0 -42.5 42.5 -42.5 
-42.5 42.5 0 42.5 42.5 0 -42.5 -42.5 0 
42.5 -42.5 0 -42.5 -42.5 0 42.5 -42.5 0 
-42.5 -42.5 0 -42.5 42.5 -42.5 -42.5 42.5 0 
42.5 42.5 0 -42.5 42.5 0 42.5 42.5 0 
42.5 42.5 0 -42.5 42.5 0 42.5 -42.5 0 
0 -42.5 0 -42.5 -42.5 -42.5 -42.5 -42.5 0 
42.5 -42.5 0 42.5 -42.5 0 -42.5 42.5 0 
42.5 42.5 0 -42.5 -42.5 0 42.5 -42.5 0 
42.5 42.5 0 -42.5 42.5 0 42.5 -42.5 0 
-42.5 -42.5 0 42.5 42.5 0 -42.5 0 0 
-42.5 42.5 0 42.5 42.5 0 -42.5 42.5 0 
-42.5 -42.5 0 42.5 -42.5 0 -42.5 -42.5 0 
42.5 -42.5 0 0 0 -42.5 -42.5 -42.5 0 
-42.5 42.5 0 42.5 42.5 0 -42.5 42.5 0 
42.5 42.5 0 42.5 42.5 0 42.5 42.5 0 
42.5 -42.5 42.5 -42.5 -42.5 -42.5 42.5 -42.5 -42.5 
-42.5 -42.5 -42.5 42.5 42.5 42.5 -42.5 42.5 -42.5 
-42.5 -42.5 -42.5 42.5 -42.5 -42.5 -42.5 0 0 
-42.5 -42.5 -42.5 42.5 -42.5 -42.5 -42.5 42.5 -42.5 
42.5 42.5 -42.5 42.5 0 0 42.5 42.5 -42.5 
0 42.5 0 -42.5 -42.5 -42.5 42.5 -42.5 -42.5 
-42.5 -42.5 -42.5 42.5 -42.5 -42.5 -42.5 42.5 -42.5 
-42.5 42.5 -42.5 42.5 42.5 -42.5 -42.5 42.5 -42.5 
42.5 42.5 -42.5 -42.5 -42.5 -42.5 -42.5 0 0 
-42.5 -42.5 -42.5 42.5 0 -42.5 0 0 -42.5 
-42.5 42.5 -42.5 42.5 42.5 -42.5 42.5 0 0 
42.5 42.5 -42.5 0 42.5 0 42.5 0 0 
42.5 0 42.5 -42.5 42.5 42.5 0 42.5 42.5 
42.5 42.5 42.5 0 -42.5 0 -42.5 -42.5 0 
-42.5 -42.5 -42.5 0 -42.5 -42.5 -42.5 -42.5 0 
-42.5 0 -42.5 42.5 0 0 -42.5 0 -42.5 
42.5 0 -42.5 42.5 0 0 -42.5 42.5 0 
-42.5 42.5 0 42.5 -42.5 -42.5 -42.5 -42.5 -42.5 
-42.5 -42.5 -42.5 42.5 42.5 -42.5 42.5 -42.5 0 
-42.5 42.5 -42.5 0 42.5 -42.5 42.5 42.5 0 
42.5 -42.5 42.5 -42.5 42.5 0 42.5 42.5 0 
0 -42.5 0 -42.5 -42.5 0 -42.5 -42.5 -42.5 
42.5 -42.5 -42.5 -42.5 -42.5 0 0 0 -42.5 
42.5 0 -42.5 42.5 0 0 42.5 0 0 
42.5 42.5 -42.5 -42.5 42.5 0 -42.5 42.5 0 
0 -42.5 42.5 0 -42.5 0 42.5 -42.5 42.5 
42.5 -42.5 42.5 0 42.5 42.5 -42.5 42.5 42.5 
42.5 42.5 0 -42.5 -42.5 -42.5 -42.5 -42.5 42.5 
42.5 -42.5 -42.5 -42.5 -42.5 0 -42.5 42.5 -42.5 
42.5 42.5 -42.5 42.5 42.5 42.5 0 42.5 0 
-42.5 -42.5 -42.5 -42.5 -42.5 42.5 -42.5 0 0 
42.5 42.5 -42.5 -42.5 42.5 -42.5 -42.5 42.5 -42.5 
42.5 42.5 42.5 0 -42.5 -42.5 42.5 -42.5 -42.5 
-42.5 -42.5 42.5 -42.5 -42.5 0 -42.5 0 -42.5 
0 0 -42.5 42.5 42.5 -42.5 42.5 42.5 42.5 
0 42.5 0 -42.5 -42.5 -42.5 -42.5 -42.5 42.5 
42.5 -42.5 42.5 -42.5 -42.5 42.5 42.5 -42.5 -42.5 
-42.5 -42.5 42.5 -42.5 -42.5 42.5 0 0 -42.5 
0 -42.5 0 42.5 -42.5 42.5 -42.5 42.5 -42.5 
42.5 42.5 -42.5 -42.5 42.5 42.5 42.5 42.5 42.5 
-42.5 -42.5 -42.5 42.5 -42.5 -42.5 -42.5 42.5 42.5 
0 42.5 0 -42.5 -42.5 -42.5 -42.5 -42.5 -42.5 
42.5 -42.5 -42.5 42.5 -42.5 42.5 -42.5 -42.5 0 
42.5 -42.5 42.5 -42.5 -42.5 -42.5 42.5 -42.5 -42.5 
42.5 -42.5 -42.5 42.5 -42.5 -42.5 42.5 42.5 -42.5 
-42.5 -42.5 42.5 -42.5 42.5 -42.5 -42.5 42.5 -42.5 
-42.5 42.5 -42.5 42.5 -42.5 -42.5 42.5 -42.5 -42.5 
42.5 42.5 -42.5 -42.5 -42.5 -42.5 -42.5 42.5 42.5 
42.5 42.5 42.5 -42.5 42.5 42.5 42.5 42.5 42.5 
42.5 -42.5 -42.5 42.5 42.5 -42.5 42.5 42.5 -42.5 
-42.5 -42.5 -42.5 0 0 -42.5 -42.5 -42.5 42.5 
-42.5 -42.5 42.5 0 0 -42.5 42.5 -42.5 42.5 
0 42.5 -42.5 42.5 -42.5 42.5 0 42.5 -42.5 
-42.5 42.5 -42.5 42.5 -42.5 -42.5 -42.5 -42.5 -42.5 
42.5 42.5 42.5 42.5 42.5 -42.5 -42.5 42.5 42.5 
-42.5 -42.5 42.5 -42.5 -42.5 42.5 -42.5 42.5 42.5 
-42.5 -42.5 -42.5 -42.5 -42.5 -42.5 0 -42.5 -42.5 
42.5 -42.5 42.5 -42.5 -42.5 -42.5 42.5 -42.5 42.5 
-42.5 -42.5 -42.5 -42.5 42.5 -42.5 -42.5 -42.5 42.5 
-42.5 -42.5 -42.5 42.5 -42.5 -42.5 42.5 -42.5 -42.5 
-42.5 42.5 -42.5 -42.5 42.5 -42.5 42.5 42.5 -42.5 
-42.5 42.5 -42.5 -42.5 42.5 42.5 42.5 42.5 42.5 
-42.5 42.5 42.5 -42.5 -42.5 -42.5 -42.5 42.5 -42.5 
42.5 42.5 -42.5 -42.5 -42.5 -42.5 42.5 -42.5 -42.5 
0 -42.5 -42.5 0 -42.5 -42.5 42.5 42.5 -42.5 
42.5 -42.5 42.5 0 -42.5 0 -42.5 0 42.5 
-42.5 42.5 -42.5 -42.5 42.5 42.5 -42.5 42.5 -42.5 
0 42.5 42.5 -42.5 0 0 -42.5 -42.5 -42.5 
-42.5 0 42.5 0 0 -42.5 42.5 42.5 42.5 
-42.5 42.5 -42.5 0 42.5 0 -42.5 0 0 
42.5 -42.5 -42.5 42.5 0 -42.5 -42.5 42.5 -42.5 
42.5 42.5 -42.5 -42.5 -42.5 42.5 -42.5 0 -42.5 
-42.5 42.5 -42.5 -42.5 0 -42.5 42.5 42.5 -42.5 
0 -42.5 -42.5 42.5 -42.5 -42.5 42.5 42.5 -42.5 
0 42.5 -42.5 0 0 -42.5 -42.5 0 -42.5 
0 -42.5 -42.5 42.5 -42.5 -42.5 0 42.5 -42.5 
42.5 -42.5 -42.5 0 42.5 -42.5 42.5 42.5 -42.5 
42.5 -42.5 -42.5 0 -42.5 -42.5 0 42.5 -42.5 
0 42.5 -42.5 -42.5 -42.5 42.5 42.5 42.5 -42.5 
42.5 42.5 -42.5 0 -42.5 -42.5 42.5 -42.5 -42.5 
-42.5 0 -42.5 -42.5 -42.5 42.5 42.5 -42.5 42.5 
42.5 42.5 -42.5 -42.5 42.5 42.5 42.5 -42.5 42.5 
0 42.5 -42.5 -42.5 42.5 42.5 42.5 42.5 42.5 
-42.5 42.5 42.5 42.5 42.5 42.5 0 -42.5 -42.5 
0 -42.5 -42.5 42.5 -42.5 -42.5 -42.5 -42.5 -42.5 
42.5 -42.5 42.5 42.5 42.5 -42.5 -42.5 0 -42.5 
-42.5 0 -42.5 42.5 42.5 42.5 0 42.5 -42.5 
42.5 42.5 -42.5 0 42.5 -42.5 -42.5 -42.5 -42.5 
42.5 -42.5 -42.5 0 0 -42.5 0 0 -42.5 
42.5 42.5 -42.5 0 -42.5 -42.5 -42.5 -42.5 42.5 
42.5 0 42.5 42.5 -42.5 42.5 0 42.5 42.5 
-42.5 42.5 -42.5 42.5 -42.5 42.5 -42.5 42.5 -42.5 
-42.5 0 0 42.5 0 -42.5 42.5 -42.5 -42.5 
-42.5 -42.5 -42.5 -42.5 0 -42.5 -42.5 -42.5 -42.5 
0 0 -42.5 -42.5 42.5 -42.5 0 -42.5 -42.5 
0 42.5 -42.5 0 42.5 -42.5 -42.5 -42.5 0 
-42.5 0 -42.5 42.5 -42.5 42.5 -42.5 -42.5 -42.5 
42.5 42.5 -42.5 -42.5 -42.5 42.5 -42.5 42.5 0 
-42.5 -42.5 -42.5 -42.5 42.5 -42.5 42.5 42.5 -42.5 
42.5 42.5 42.5 42.5 -42.5 42.5 42.5 -42.5 0 
-42.5 -42.5 -42.5 0 -42.5 0 42.5 -42.5 -42.5 
42.5 0 0 42.5 -42.5 -42.5 0 42.5 -42.5 
42.5 -42.5 -42.5 -42.5 42.5 -42.5 42.5 42.5 -42.5 
-42.5 0 -42.5 42.5 42.5 -42.5 0 42.5 42.5 
0 42.5 42.5 0 42.5 -42.5 42.5 42.5 -42.5 
-42.5 -42.5 -42.5 42.5 -42.5 -42.5 -42.5 -42.5 -42.5 
-42.5 -42.5 -42.5 -42.5 -42.5 -42.5 42.5 -42.5 -42.5 
-42.5 -42.5 -42.5 42.5 42.5 -42.5 42.5 0 0 
42.5 -42.5 42.5 -42.5 42.5 -42.5 42.5 42.5 -42.5 
-42.5 -42.5 -42.5 0 -42.5 -42.5 42.5 0 -42.5 
0 42.5 -42.5 42.5 -42.5 -42.5 -42.5 0 -42.5 
42.5 42.5 42.5 0 -42.5 -42.5 42.5 42.5 42.5 
0 0 -42.5 0 0 -42.5 -42.5 -42.5 0 
42.5 -42.5 0 -42.5 -42.5 -42.5 42.5 -42.5 -42.5 
-42.5 -42.5 -42.5 -42.5 42.5 -42.5 -42.5 -42.5 -42.5 
-42.5 -42.5 42.5 42.5 -42.5 -42.5 -42.5 0 -42.5 
0 0 -42.5 -42.5 42.5 42.5 42.5 42.5 42.5 
-42.5 -42.5 -42.5 -42.5 42.5 -42.5 42.5 42.5 -42.5 
42.5 42.5 -42.5 42.5 -42.5 -42.5 42.5 42.5 -42.5 
-42.5 -42.5 -42.5 42.5 -42.5 -42.5 -42.5 42.5 42.5 
42.5 42.5 42.5 -42.5 42.5 -42.5 42.5 42.5 -42.5 
-42.5 42.5 -42.5 -42.5 -42.5 0 42.5 42.5 -42.5 
-42.5 42.5 -42.5 42.5 42.5 -42.5 -42.5 -42.5 -42.5 
42.5 42.5 -42.5 42.5 -42.5 42.5 -42.5 -42.5 -42.5 
-42.5 -42.5 -42.5 0 42.5 -42.5 -42.5 42.5 42.5 
-42.5 -42.5 -42.5 42.5 42.5 -42.5 42.5 0 42.5 
-42.5 42.5 42.5 42.5 42.5 -42.5 42.5 -42.5 42.5 
42.5 42.5 -42.5 -42.5 42.5 -42.5 -42.5 -42.5 42.5 
42.5 -42.5 42.5 42.5 42.5 -42.5 -42.5 42.5 42.5 
-42.5 -42.5 -42.5 -42.5 -42.5 -42.5 -42.5 -42.5 0 
-42.5 -42.5 42.5 -42.5 -42.5 -42.5 0 -42.5 0 
42.5 -42.5 0 -42.5 -42.5 -42.5 -42.5 -42.5 -42.5 
0 42.5 -42.5 -42.5 -42.5 -42.5 -42.5 42.5 42.5 
42.5 42.5 42.5 42.5 42.5 0 0 42.5 42.5 
0 42.5 0 42.5 42.5 -42.5 0 -42.5 -42.5 
-42.5 42.5 -42.5 42.5 42.5 -42.5 -42.5 -42.5 -42.5 
-42.5 42.5 -42.5 42.5 42.5 -42.5 42.5 42.5 -42.5 
42.5 -42.5 -42.5 42.5 -42.5 -42.5 42.5 -42.5 -42.5 
0 -42.5 -42.5 0 42.5 -42.5 0 0 42.5 
42.5 42.5 42.5 42.5 -42.5 0 -42.5 42.5 -42.5 
42.5 -42.5 0 42.5 -42.5 42.5 -42.5 42.5 -42.5 
42.5 -42.5 42.5 -42.5 42.5 -42.5 -42.5 -42.5 42.5 
42.5 -42.5 42.5 -42.5 42.5 -42.5 -42.5 -42.5 0 
42.5 42.5 42.5 42.5 42.5 -42.5 0 0 42.5 
-42.5 0 0 -42.5 -42.5 -42.5 -42.5 42.5 -42.5 
-42.5 -42.5 42.5 -42.5 -42.5 0 -42.5 42.5 -42.5 
-42.5 42.5 -42.5 0 -42.5 42.5 -42.5 42.5 -42.5 
42.5 -42.5 -42.5 42.5 42.5 42.5 0 42.5 0 
-42.5 42.5 42.5 42.5 42.5 42.5 -42.5 -42.5 42.5 
-42.5 42.5 -42.5 -42.5 42.5 42.5 42.5 42.5 42.5 
42.5 -42.5 -42.5 42.5 -42.5 -42.5 -42.5 0 0 
-42.5 -42.5 42.5 42.5 0 0 -42.5 -42.5 42.5 
42.5 -42.5 42.5 42.5 42.5 42.5 -42.5 42.5 0 
-42.5 42.5 -42.5 0 0 42.5 0 42.5 42.5 
0 42.5 0 -42.5 42.5 42.5 42.5 42.5 42.5 
42.5 42.5 -42.5 -42.5 -42.5 -42.5 -42.5 -42.5 -42.5 
42.5 -42.5 -42.5 42.5 -42.5 -42.5 -42.5 -42.5 -42.5 
-42.5 42.5 -42.5 42.5 42.5 0 0 0 42.5 
0 42.5 0 42.5 42.5 -42.5 0 0 42.5 
42.5 0 -42.5 -42.5 42.5 42.5 42.5 42.5 42.5 
42.5 42.5 -42.5 42.5 -42.5 -42.5 42.5 -42.5 42.5 
0 -42.5 0 42.5 -42.5 42.5 -42.5 42.5 -42.5 
-42.5 -42.5 -42.5 42.5 42.5 -42.5 -42.5 42.5 0 
42.5 42.5 -42.5 42.5 -42.5 0 -42.5 -42.5 0 
42.5 -42.5 42.5 42.5 -42.5 -42.5 0 0 42.5 
-42.5 42.5 0 42.5 42.5 42.5 0 42.5 0 
-42.5 42.5 42.5 42.5 42.5 42.5 42.5 42.5 -42.5 
-42.5 42.5 -42.5 42.5 42.5 -42.5 -42.5 -42.5 -42.5 
42.5 -42.5 -42.5 42.5 42.5 -42.5 -42.5 -42.5 -42.5 
-42.5 -42.5 42.5 42.5 -42.5 -42.5 -42.5 42.5 -42.5 
-42.5 -42.5 42.5 42.5 42.5 42.5 -42.5 42.5 -42.5 
42.5 -42.5 42.5 -42.5 42.5 0 -42.5 42.5 0 
42.5 42.5 42.5 -42.5 42.5 42.5 -42.5 42.5 42.5 
-42.5 42.5 -42.5 42.5 -42.5 42.5 0 -42.5 42.5 
-42.5 0 0 -42.5 42.5 42.5 -42.5 42.5 42.5 
0 42.5 0 -42.5 -42.5 -42.5 -42.5 42.5 -42.5 
-42.5 42.5 -42.5 -42.5 42.5 42.5 0 -42.5 42.5 
42.5 42.5 42.5 -42.5 -42.5 42.5 42.5 -42.5 42.5 
42.5 42.5 42.5 42.5 42.5 42.5 0 0 42.5 
42.5 42.5 42.5 -42.5 42.5 42.5 -42.5 -42.5 42.5 
42.5 42.5 42.5 42.5 -42.5 0 -42.5 -42.5 0 
0 -42.5 0 -42.5 -42.5 0 42.5 -42.5 0 
-42.5 -42.5 0 42.5 -42.5 0 42.5 0 0 
42.5 -42.5 0 42.5 -42.5 0 -42.5 -42.5 0 
42.5 0 0 42.5 -42.5 0 -42.5 42.5 0 
42.5 42.5 0 -42.5 0 0 -42.5 -42.5 0 
0 -42.5 0 42.5 42.5 0 0 42.5 0 
-42.5 42.5 0 42.5 42.5 0 -42.5 -42.5 0 
42.5 42.5 0 42.5 0 0 0 42.5 0 
42.5 0 0 -42.5 -42.5 0 42.5 -42.5 0 
0 -42.5 0 -42.5 42.5 0 -42.5 0 0 
42.5 -42.5 0 -42.5 42.5 0 -42.5 -42.5 0 
42.5 -42.5 0 -42.5 -42.5 0 42.5 -42.5 0 
-42.5 -42.5 0 0 -42.5 0 0 -42.5 0 
42.5 -42.5 0 -42.5 0 0 42.5 0 0 
-42.5 42.5 0 42.5 -42.5 0 0 42.5 0 
-42.5 -42.5 0 42.5 -42.5 0 -42.5 -42.5 0 
-42.5 0 0 42.5 42.5 0 -42.5 42.5 0 
-42.5 0 0 42.5 0 0 -42.5 42.5 0 
42.5 0 0 -42.5 42.5 0 42.5 42.5 0 
42.5 42.5 0 42.5 42.5 0 -42.5 -42.5 0 
0 -42.5 0 42.5 -42.5 0 -42.5 42.5 0 
0 42.5 0 -42.5 42.5 0 42.5 42.5 0 
42.5 -42.5 0 -42.5 42.5 0 -42.5 -42.5 0 
-42.5 42.5 0 42.5 42.5 0 -42.5 -42.5 0 
-42.5 -42.5 0 0 -42.5 0 0 -42.5 0 
42.5 -42.5 0 0 42.5 0 -42.5 0 0 
0 -42.5 0 42.5 -42.5 0 -42.5 42.5 0 
42.5 42.5 0 42.5 42.5 0 -42.5 -42.5 0 
-42.5 42.5 0 42.5 42.5 0 42.5 0 0 
0 42.5 0 -42.5 -42.5 0 42.5 -42.5 0 
42.5 42.5 0 -42.5 42.5 0 42.5 42.5 0 
42.5 -42.5 0 -42.5 42.5 0 -42.5 -42.5 0 
42.5 42.5 0 -42.5 42.5 0 -42.5 0 0 
42.5 42.5 0 -42.5 42.5 0 0 42.5 0 
-42.5 42.5 0 42.5 42.5 0 -42.5 -42.5 0 
0 -42.5 0 42.5 -42.5 0 -42.5 -42.5 0 
42.5 -42.5 0 -42.5 -42.5 0 0 -42.5 0 
42.5 -42.5 0 42.5 0 0 -42.5 -42.5 0 
42.5 -42.5 0 -42.5 42.5 0 42.5 -42.5 0 
-42.5 -42.5 0 42.5 42.5 0 42.5 -42.5 0 
-42.5 42.5 0 -42.5 -42.5 0 42.5 42.5 0 
-42.5 42.5 0 -42.5 42.5 0 42.5 42.5 0 
-42.5 42.5 0 42.5 42.5 0 -42.5 42.5 0 
42.5 42.5 0 -42.5 -42.5 0 42.5 -42.5 0 
-42.5 -42.5 0 0 -42.5 0 0 -42.5 0 
42.5 -42.5 0 -42.5 42.5 0 0 42.5 0 
-42.5 42.5 0 42.5 42.5 0 -42.5 -42.5 0 
42.5 -42.5 0 -42.5 42.5 0 42.5 42.5 0 
42.5 0 0 -42.5 42.5 0 -42.5 42.5 0 
42.5 42.5 0 -42.5 -42.5 0 42.5 -42.5 0 
-42.5 -42.5 -42.5 -42.5 42.5 -42.5 0 42.5 0 
0 42.5 -42.5 -42.5 42.5 -42.5 42.5 42.5 -42.5 
-42.5 0 42.5 -42.5 0 0 42.5 0 -42.5 
42.5 42.5 -42.5 -42.5 -42.5 -42.5 42.5 42.5 -42.5 
42.5 42.5 -42.5 0 42.5 -42.5 -42.5 0 0 
-42.5 0 0 -42.5 -42.5 -42.5 -42.5 -42.5 -42.5 
42.5 42.5 42.5 42.5 -42.5 -42.5 -42.5 -42.5 -42.5 
42.5 -42.5 42.5 -42.5 0 0 -42.5 0 0 
-42.5 -42.5 -42.5 42.5 -42.5 -42.5 42.5 42.5 -42.5 
42.5 42.5 -42.5 42.5 -42.5 42.5 42.5 42.5 42.5 
42.5 42.5 -42.5 42.5 42.5 -42.5 0 42.5 -42.5 
0 0 42.5 42.5 -42.5 0 42.5 -42.5 0 
42.5 42.5 -42.5 -42.5 42.5 42.5 42.5 42.5 42.5 
42.5 42.5 85 42.5 -42.5 -42.5 42.5 42.5 42.5 
42.5 42.5 42.5 -42.5 42.5 -42.5 42.5 42.5 -42.5 
-42.5 -42.5 -42.5 -42.5 -42.5 42.5 42.5 -42.5 -42.5 
42.5 42.5 -42.5 42.5 -42.5 -42.5 -42.5 -42.5 42.5 
42.5 -42.5 -42.5 -42.5 -42.5 -42.5 42.5 -42.5 42.5 
-42.5 -42.5 42.5 42.5 42.5 -42.5 -42.5 -42.5 42.5 
42.5 42.5 -42.5 -42.5 42.5 0 42.5 42.5 42.5 
-42.5 -42.5 -42.5 -42.5 42.5 42.5 -42.5 -42.5 42.5 
-42.5 42.5 -42.5 42.5 -42.5 42.5 -42.5 -42.5 -42.5 
42.5 42.5 42.5 42.5 42.5 42.5 -42.5 42.5 42.5 
-42.5 42.5 42.5 42.5 42.5 42.5 -42.5 42.5 -42.5 
42.5 -42.5 -42.5 -42.5 -42.5 42.5 42.5 -42.5 -42.5 
-42.5 -42.5 42.5 42.5 42.5 42.5 -42.5 -42.5 42.5 
0 0 -42.5 0 -42.5 -42.5 42.5 -42.5 42.5 
42.5 42.5 42.5 -42.5 -42.5 42.5 0 -42.5 42.5 
0 -42.5 42.5 0 42.5 0 -42.5 42.5 -42.5 
-42.5 42.5 42.5 -42.5 42.5 0 42.5 -42.5 0 
-42.5 -42.5 0 -42.5 -42.5 0 42.5 42.5 -42.5 
42.5 42.5 -42.5 42.5 42.5 0 42.5 42.5 -42.5 
42.5 42.5 -42.5 42.5 42.5 0 42.5 42.5 0 
0 -42.5 0 0 -42.5 0 -42.5 -42.5 -42.5 
-42.5 -42.5 -42.5 42.5 42.5 42.5 0 42.5 0 
-42.5 42.5 0 -42.5 42.5 0 -42.5 0 0 
-42.5 -42.5 -42.5 -42.5 42.5 42.5 42.5 -42.5 -42.5 
-42.5 42.5 42.5 -42.5 -42.5 0 -42.5 42.5 -42.5 
-42.5 42.5 -42.5 0 42.5 -42.5 -42.5 -42.5 0 
-42.5 -42.5 0 -42.5 -42.5 0 -42.5 -42.5 0 
-42.5 -42.5 0 -42.5 -42.5 0 0 42.5 0 
0 42.5 0 0 42.5 0 0 42.5 0 
-42.5 42.5 42.5 0 0 -42.5 0 0 -42.5 
0 0 -42.5 -42.5 -42.5 -42.5 0 0 -42.5 
0 -42.5 0 0 0 -42.5 0 42.5 0 
42.5 42.5 42.5 0 42.5 42.5 0 42.5 42.5 
0 -42.5 -42.5 0 -42.5 -42.5 42.5 42.5 42.5 
0 42.5 -42.5 0 0 -42.5 42.5 0 0 
0 -42.5 0 42.5 -42.5 -42.5 42.5 42.5 0 
0 0 -42.5 0 -42.5 0 0 -42.5 -42.5 
42.5 42.5 42.5 0 -42.5 0 42.5 -42.5 -42.5 
42.5 -42.5 -42.5 -42.5 0 0 -42.5 42.5 42.5 
0 42.5 42.5 0 42.5 42.5 -42.5 -42.5 0 
-42.5 42.5 0 42.5 42.5 0 42.5 42.5 0 
42.5 42.5 0 0 0 -42.5 -42.5 42.5 -42.5 
0 0 -42.5 0 -42.5 0 42.5 42.5 0 
42.5 42.5 0 -42.5 42.5 -42.5 -42.5 42.5 42.5 
-42.5 42.5 42.5 42.5 0 0 0 -42.5 0 
-42.5 0 0 -42.5 42.5 42.5 -42.5 42.5 42.5 
-42.5 42.5 -42.5 -42.5 0 -42.5 0 42.5 0 
42.5 42.5 42.5 0 -42.5 42.5 0 42.5 -42.5 
0 42.5 -42.5 42.5 0 0 42.5 0 0 
42.5 -42.5 0 42.5 0 0 0 0 -42.5 
-42.5 42.5 42.5 -42.5 0 0 42.5 42.5 -42.5 
42.5 0 -42.5 42.5 0 -42.5 0 0 -42.5 
0 0 -42.5 0 0 -42.5 0 0 -42.5 
-42.5 42.5 42.5 -42.5 42.5 42.5 -42.5 42.5 42.5 
42.5 0 0 -42.5 -42.5 -42.5 0 0 -42.5 
0 0 -42.5 -42.5 0 0 -42.5 42.5 -42.5 
-42.5 42.5 -42.5 -42.5 42.5 42.5 -42.5 42.5 42.5 
-42.5 42.5 42.5 -42.5 0 0 42.5 0 42.5 
42.5 0 42.5 -42.5 42.5 -42.5 -42.5 42.5 -42.5 
-42.5 42.5 -42.5 -42.5 -42.5 -42.5 0 -42.5 -42.5 
0 -42.5 -42.5 0 -42.5 -42.5 -42.5 -42.5 -42.5 
-42.5 -42.5 42.5 -42.5 -42.5 42.5 -42.5 0 42.5 