# vtk DataFile Version 4.0
vtk output
ASCII
DATASET POLYDATA
POINTS 4454 float
116 71 1 113 72 0 116 73 0
101 75 1 107 75 0 119 76 0
101 77 0 121 81 1 101 82 0
100 83 1 101 83 1 103 83 0
120 83 0 101 85 0 119 86 1
117 87 0 119 87 0 120 87 1
101 88 1 103 88 0 118 88 1
105 88 0 117 89 0 106 90 0
108 90 0 111 89 0 112 90 0
103 91 1 107 91 1 110 91 0
116 91 1 113 92 0 117 92 1
108 69 2 120 73 2 123 82 2
124 85 2 123 86 2 103 90 2
106 91 2 120 91 2 113 93 2
109 94 2 112 94 2 104 69 3
114 70 3 118 70 3 122 74 3
97 76 3 98 80 3 99 84 3
123 88 3 101 92 3 118 92 3
111 94 3 108 95 3 116 95 3
110 67 4 111 67 4 106 68 4
117 68 4 99 72 4 121 72 4
124 78 4 125 79 4 96 84 4
126 85 4 124 90 4 120 94 4
105 96 4 115 97 4 101 44 5
100 45 5 94 47 5 90 50 5
93 50 5 113 66 5 104 69 5
31 76 5 124 76 5 24 79 5
97 79 5 125 80 5 95 81 5
18 82 5 24 82 5 16 83 5
126 83 5 98 90 5 125 90 5
100 94 5 119 96 5 106 96 5
110 97 5 117 97 5 108 98 5
103 40 6 100 44 6 100 46 6
83 49 6 89 49 6 92 51 6
110 65 6 105 66 6 114 66 6
106 67 6 107 67 6 118 67 6
118 68 6 121 69 6 124 71 6
30 76 6 32 76 6 21 77 6
29 79 6 14 80 6 21 80 6
18 81 6 128 81 6 16 82 6
19 83 6 22 82 6 94 83 6
125 88 6 96 89 6 122 95 6
106 98 6 115 99 6 104 36 7
103 39 7 99 41 7 102 41 7
79 47 7 79 49 7 98 49 7
99 49 7 82 51 7 85 51 7
91 52 7 108 65 7 111 65 7
110 66 7 120 69 7 34 73 7
94 79 7 29 81 7 20 82 7
14 83 7 18 84 7 21 84 7
97 90 7 96 92 7 98 94 7
104 96 7 107 99 7 113 99 7
110 100 7 113 100 7 103 33 8
103 36 8 104 40 8 79 49 8
90 53 8 37 63 8 104 65 8
36 66 8 121 67 8 35 68 8
102 68 8 36 69 8 126 72 8
21 73 8 95 73 8 33 74 8
34 77 8 31 79 8 12 82 8
129 84 8 19 85 8 128 85 8
128 89 8 126 91 8 126 93 8
124 93 8 123 96 8 112 100 8
100 34 9 106 35 9 89 39 9
106 39 9 104 40 9 72 45 9
103 46 9 78 50 9 86 52 9
118 64 9 37 67 9 119 67 9
38 68 9 96 72 9 35 74 9
3 77 9 94 77 9 14 84 9
93 85 9 94 88 9 126 91 9
95 92 9 103 99 9 105 25 10
105 28 10 71 42 10 105 42 10
101 47 10 75 49 10 76 49 10
79 51 10 35 57 10 33 61 10
36 61 10 113 63 10 38 66 10
100 67 10 123 67 10 125 68 10
98 69 10 1 73 10 35 73 10
3 75 10 34 76 10 93 76 10
130 78 10 129 80 10 130 81 10
16 84 10 128 88 10 97 95 10
109 100 10 112 101 10 105 23 11
105 24 11 98 25 11 98 28 11
93 30 11 71 37 11 68 40 11
69 41 11 69 42 11 104 43 11
71 45 11 104 45 11 74 49 11
80 51 11 82 52 11 36 55 11
37 59 11 105 63 11 37 65 11
98 67 11 38 68 11 0 70 11
125 70 11 129 73 11 94 75 11
2 77 11 92 80 11 6 81 11
91 82 11 131 83 11 92 84 11
15 85 11 102 21 12 99 24 12
108 30 12 107 34 12 69 35 12
68 36 12 73 36 12 108 36 12
106 38 12 81 53 12 94 52 12
39 63 12 38 64 12 99 66 12
128 71 12 0 75 12 34 76 12
92 76 12 91 79 12 131 80 12
33 81 12 31 81 12 92 85 12
91 86 12 130 86 12 91 87 12
130 89 12 125 97 12 109 102 12
110 103 12 98 18 13 101 18 13
81 26 13 76 28 13 83 28 13
70 31 13 68 33 13 68 34 13
108 41 13 104 47 13 30 49 13
32 50 13 34 53 13 80 54 13
81 53 13 83 54 13 17 55 13
35 55 13 12 60 13 1 62 13
108 62 13 104 63 13 105 63 13
1 65 13 39 65 13 38 66 13
37 70 13 0 74 13 37 75 13
35 76 13 35 78 13 91 79 13
92 83 13 91 84 13 11 85 13
128 93 13 118 100 13 105 101 13
107 102 13 97 17 14 104 21 14
104 22 14 105 23 14 78 26 14
70 28 14 68 29 14 108 32 14
108 36 14 107 37 14 108 39 14
107 40 14 26 48 14 29 49 14
102 50 14 35 52 14 96 52 14
79 53 14 83 54 14 9 55 14
16 55 14 0 59 14 39 63 14
107 63 14 38 64 14 104 64 14
39 65 14 124 66 14 127 68 14
94 70 14 95 71 14 92 75 14
36 77 14 4 79 14 132 80 14
5 81 14 90 82 14 30 83 14
90 85 14 12 85 14 15 86 14
17 86 14 128 92 14 94 94 14
99 97 14 99 99 14 107 101 14
110 102 14 111 103 14 90 15 15
67 37 15 107 44 15 21 46 15
71 47 15 103 49 15 17 51 15
101 51 15 33 52 15 99 52 15
35 53 15 3 55 15 111 61 15
109 62 15 117 64 15 40 65 15
99 65 15 122 65 15 38 72 15
93 75 15 35 78 15 2 79 15
4 81 15 32 82 15 7 83 15
12 85 15 13 86 15 92 90 15
127 95 15 124 98 15 106 102 15
109 103 15 112 103 15 88 13 16
83 15 16 93 16 16 73 19 16
73 21 16 68 29 16 66 35 16
107 41 16 20 45 16 16 46 16
24 47 16 29 49 16 3 52 16
100 51 16 109 61 16 110 62 16
101 63 16 106 63 16 122 64 16
39 67 16 95 70 16 39 71 16
37 76 16 91 80 16 33 81 16
9 85 16 11 85 16 101 101 16
106 101 16 107 102 16 80 14 17
12 45 17 105 45 17 27 47 17
8 48 17 26 48 17 5 50 17
7 50 17 74 50 17 33 52 17
82 53 17 1 55 17 104 61 17
102 62 17 109 62 17 118 64 17
97 67 17 125 68 17 94 70 17
38 71 17 128 72 17 93 73 17
38 74 17 92 74 17 36 77 17
34 80 17 32 83 17 25 86 17
130 91 17 128 92 17 125 96 17
124 99 17 117 102 17 87 14 18
97 16 18 73 20 18 70 26 18
68 35 18 67 36 18 22 45 18
12 46 18 25 46 18 72 50 18
99 53 18 2 54 18 79 54 18
89 55 18 37 58 18 105 61 18
111 61 18 103 62 18 117 62 18
116 63 18 124 65 18 39 66 18
127 69 18 36 75 18 37 76 18
91 77 18 14 86 18 23 87 18
130 87 18 128 93 18 127 95 18
108 103 18 110 102 18 87 13 19
94 15 19 95 16 19 101 18 19
70 23 19 67 31 19 68 33 19
108 34 19 67 35 19 109 35 19
107 40 19 14 45 19 20 45 19
106 45 19 19 46 19 4 51 19
77 51 19 78 52 19 79 53 19
83 55 19 1 56 19 89 56 19
115 61 19 101 63 19 121 64 19
97 66 19 96 68 19 39 71 19
93 74 19 130 74 19 91 76 19
35 78 19 36 79 19 90 79 19
5 82 19 132 83 19 30 83 19
10 84 19 12 86 19 128 95 19
127 95 19 122 99 19 103 101 19
106 102 19 88 15 20 100 18 20
102 19 20 108 40 20 108 41 20
18 45 20 104 47 20 72 48 20
104 48 20 30 50 20 3 52 20
76 52 20 80 54 20 1 55 20
93 54 20 95 55 20 109 60 20
113 61 20 120 63 20 98 65 20
97 67 20 95 68 20 38 74 20
129 74 20 36 75 20 90 82 20
6 83 20 8 84 20 10 85 20
14 85 20 15 87 20 130 90 20
96 97 20 126 97 20 125 97 20
119 102 20 108 103 20 96 15 21
74 20 21 102 20 21 69 26 21
105 46 21 24 47 21 10 48 21
4 52 21 75 52 21 98 53 21
81 53 21 0 57 21 110 62 21
121 64 21 92 73 21 36 77 21
4 80 21 33 82 21 89 82 21
31 82 21 131 83 21 7 84 21
132 85 21 17 87 21 18 86 21
129 90 21 95 96 21 97 96 21
102 101 21 115 101 21 108 102 21
111 102 21 104 20 22 72 21 22
105 22 22 16 46 22 23 46 22
11 47 22 24 47 22 6 49 22
72 49 22 32 50 22 101 50 22
4 51 22 79 53 22 83 53 22
2 55 22 115 62 22 98 65 22
95 71 22 35 79 22 31 83 22
132 83 22 9 83 22 10 84 22
28 85 22 131 87 22 95 96 22
125 96 22 101 99 22 91 14 23
98 16 23 75 18 23 105 22 23
69 29 23 109 33 23 67 35 23
109 35 23 67 37 23 104 47 23
102 50 23 100 52 23 3 54 23
36 55 23 110 61 23 112 61 23
111 62 23 116 62 23 115 63 23
120 63 23 40 65 23 125 68 23
39 69 23 95 69 23 39 70 23
128 70 23 93 72 23 91 75 23
36 77 23 92 77 23 91 78 23
131 79 23 3 79 23 34 80 23
4 81 23 132 81 23 90 82 23
90 84 23 16 87 23 22 87 23
129 89 23 128 94 23 96 97 23
117 101 23 113 102 23 114 103 23
92 14 24 95 15 24 94 16 24
80 17 24 72 22 24 68 30 24
108 33 24 107 37 24 108 38 24
106 42 24 104 45 24 23 46 24
105 47 24 11 48 24 29 48 24
101 49 24 3 52 24 97 52 24
1 55 24 87 55 24 90 55 24
110 61 24 115 62 24 38 63 24
38 64 24 39 66 24 96 67 24
96 69 24 94 70 24 37 74 24
2 78 24 2 79 24 34 79 24
32 81 24 130 82 24 130 86 24
18 86 24 21 86 24 130 89 24
96 95 24 125 95 24 124 98 24
122 99 24 104 100 24 107 102 24
115 101 24 91 15 25 81 16 25
102 22 25 106 25 25 69 27 25
108 36 25 108 38 25 106 40 25
19 45 25 11 47 25 26 47 25
104 47 25 74 48 25 79 53 25
82 54 25 84 54 25 0 57 25
37 57 25 118 63 25 94 70 25
129 72 25 130 75 25 92 76 25
35 78 25 131 80 25 30 82 25
24 84 25 131 85 25 129 91 25
127 93 25 123 96 25 122 98 25
102 100 25 106 101 25 115 101 25
108 102 25 110 101 25 88 14 26
92 16 26 96 17 26 105 26 26
107 27 26 108 30 26 69 32 26
107 39 26 107 41 26 103 46 26
12 48 26 27 48 26 33 52 26
95 52 26 86 54 26 90 54 26
3 56 26 0 60 26 0 61 25
39 62 26 129 72 26 93 73 26
0 74 26 35 77 26 93 77 26
4 79 26 31 81 26 28 83 26
18 85 26 91 86 26 92 89 26
124 96 26 123 97 26 120 98 26
121 97 26 103 100 26 108 100 26
89 15 27 99 19 27 101 20 27
140 22 27 140 23 27 105 25 27
106 27 27 142 28 27 105 40 27
69 42 27 105 44 27 18 46 27
24 49 27 27 50 27 97 51 27
80 51 27 4 53 27 87 52 27
90 54 27 94 53 27 35 58 27
38 60 27 111 62 27 0 63 27
37 64 27 113 64 27 115 64 27
38 65 27 118 65 27 119 66 27
1 72 27 1 76 27 94 76 27
34 78 27 130 78 27 29 82 27
17 84 27 23 84 27 130 85 27
93 88 27 129 88 27 94 90 27
93 92 27 102 99 27 103 98 27
107 100 27 87 15 28 93 16 28
97 18 28 76 20 28 99 21 28
140 22 28 140 23 28 73 24 28
71 27 28 142 27 28 106 28 28
142 28 28 69 31 28 144 32 28
105 37 28 71 40 28 105 42 28
71 44 28 25 49 28 79 51 28
7 52 28 32 52 28 81 52 28
5 53 28 89 52 28 3 58 28
111 64 28 121 66 28 36 69 28
1 73 28 4 79 28 129 79 28
6 81 28 28 83 28 14 85 28
94 87 28 128 87 28 128 91 28
124 94 28 99 97 28 102 98 28
120 99 28 115 100 28 116 101 28
91 16 29 94 19 29 140 22 29
73 23 29 75 23 29 140 23 29
142 27 29 142 28 29 106 31 29
144 32 29 106 33 29 144 33 29
105 34 29 106 38 29 105 39 29
103 43 29 18 47 29 101 47 29
22 48 29 33 55 29 3 56 29
36 60 29 116 64 29 0 65 29
99 67 29 37 68 29 122 68 29
36 71 29 127 72 29 35 76 29
95 76 29 30 80 29 129 80 29
92 81 29 15 83 29 18 83 29
22 83 29 25 84 29 128 86 29
126 93 29 99 96 29 103 98 29
110 99 29 140 22 30 140 23 30
72 25 30 142 27 30 72 28 30
142 28 30 71 30 30 144 32 30
106 33 30 144 33 30 71 34 30
104 35 30 100 46 30 99 48 30
24 49 30 78 49 30 97 48 30
28 52 29 83 52 30 94 52 30
33 55 30 3 57 30 4 58 30
35 58 30 1 63 30 108 64 30
118 66 30 2 67 30 122 69 30
126 74 30 95 75 30 31 78 30
127 82 30 14 83 30 23 83 30
15 84 30 127 90 30 96 91 30
97 92 30 99 94 29 119 94 29
101 96 30 112 97 29 85 17 31
88 17 31 138 17 31 138 18 31
96 21 31 76 22 31 140 22 31
101 23 31 140 23 31 103 26 31
73 27 31 142 27 31 74 28 31
142 28 31 104 30 31 144 32 31
144 33 31 71 34 31 71 38 31
104 39 31 73 44 31 17 48 31
23 49 31 24 51 31 92 50 31
29 53 31 30 53 31 4 61 31
2 63 31 35 64 31 113 65 31
2 68 31 126 73 31 5 74 31
97 74 31 95 79 31 25 81 31
15 82 31 17 82 31 21 82 31
127 84 31 97 90 31 113 93 31
102 96 31 104 97 31 138 17 32
78 21 32 78 22 31 140 22 32
140 23 32 142 27 32 142 28 32
104 30 32 144 32 32 105 33 32
144 33 32 72 36 32 104 36 32
102 40 32 101 44 31 100 45 32
100 47 32 17 51 32 25 51 32
8 53 32 9 53 31 35 63 32
107 65 32 108 66 32 114 66 32
35 68 32 2 70 32 100 70 32
[...]
POINT_DATA 4454
SCALARS scalars float
LOOKUP_TABLE default
255 255 255 255 255 255 255 255 255
255 255 255 255 255 255 255 255 255
255 255 255 255 255 255 255 255 255
255 255 255 255 255 255 255 255 255
255 255 255 255 255 255 255 255 255
255 255 255 255 255 255 255 255 255
255 255 255 255 255 255 255 255 255
255 255 255 255 255 255 255 255 255
255 255 255 255 255 255 255 255 255
255 255 255 255 255 255 255 255 255
255 255 255 255 255 255 255 255 255
255 255 255 255 255 255 255 255 255
255 255 255 255 255 255 255 255 255
255 255 255 255 255 255 255 255 255
255 255 255 255 255 255 255 255 255
255 255 255 255 255 255 255 255 255
255 255 255 255 255 255 255 255 255
255 255 255 255 255 255 255 255 255
255 255 255 255 255 255 255 255 255
255 255 255 255 255 255 255 255 255
255 255 255 255 255 255 255 255 255
255 255 255 255 255 255 255 255 255
255 255 255 255 255 255 255 255 255
255 255 255 255 255 255 255 255 255
255 255 255 255 255 255 255 255 255
255 255 255 255 255 255 255 255 255
255 255 255 255 255 255 255 255 255
255 255 255 255 255 255 255 255 255
255 255 255 255 255 255 255 255 255
255 255 255 255 255 255 255 255 255
255 255 255 255 255 255 255 255 255
255 255 255 255 255 255 255 255 255
255 255 255 255 255 255 255 255 255
255 255 255 255 255 255 255 255 255
255 255 255 255 255 255 255 255 255
255 255 255 255 255 255 255 255 255
255 255 255 255 255 255 255 255 255
255 255 255 255 255 255 255 255 255
255 255 255 255 255 255 255 255 255
255 255 255 255 255 255 255 255 255
255 255 255 255 255 255 255 255 255
255 255 255 255 255 255 255 255 255
255 255 255 255 255 255 255 255 255
255 255 255 255 255 255 255 255 255
255 255 255 255 255 255 255 255 255
255 255 255 255 255 255 255 255 255
255 255 255 255 255 255 255 255 255
255 255 255 255 255 255 255 255 255
255 255 255 255 255 255 255 255 255
255 255 255 255 255 255 255 255 255
255 255 255 255 255 255 255 255 255
255 255 255 255 255 255 255 255 255
255 255 255 255 255 255 255 255 255
255 255 255 255 255 255 255 255 255
255 255 255 255 255 255 255 255 255
255 255 255 255 255 255 255 255 255
255 255 255 255 255 255 255 255 255
255 255 255 255 255 255 255 255 255
255 255 255 255 255 255 255 255 255
255 255 255 255 255 255 255 255 255
255 255 255 255 255 255 255 255 255
255 255 255 255 255 255 255 255 255
255 255 255 255 255 255 255 255 255
255 255 255 255 255 255 255 255 255
255 255 255 255 255 255 255 255 255
255 255 255 255 255 255 255 255 255
255 255 255 255 255 255 255 255 255
255 255 255 255 255 255 255 255 255
255 255 255 255 255 255 255 255 255
255 255 255 255 255 255 255 255 255
255 255 255 255 255 255 255 255 255
255 255 255 255 255 255 255 255 255
255 255 255 255 255 255 255 255 255
255 255 255 255 255 255 255 255 255
255 255 255 255 255 255 255 255 255
255 255 255 255 255 255 255 255 255
255 255 255 255 255 255 255 255 255
255 255 255 255 255 255 255 255 255
255 255 255 255 255 255 255 255 255
255 255 255 255 255 255 255 255 255
255 255 255 255 255 255 255 255 255
255 255 255 255 255 255 255 255 255
255 255 255 255 255 255 255 255 255
255 255 255 255 255 255 255 255 255
255 255 255 255 255 255 255 255 255
255 255 255 255 255 255 255 255 255
255 255 255 255 255 255 255 255 255
255 255 255 255 255 255 255 255 255
255 255 255 255 255 255 255 255 255
255 255 255 255 255 255 255 255 255
255 255 255 255 255 255 255 255 255
255 255 255 255 255 255 255 255 255
255 255 255 255 255 255 255 255 255
255 255 255 255 255 255 255 255 255
255 255 255 255 255 255 255 255 255
255 255 255 255 255 255 255 255 255
255 255 255 255 255 255 255 255 255
255 255 255 255 255 255 255 255 255
255 255 255 255 255 255 255 255 255
255 255 255 255 255 255 255 255 255
255 255 255 255 255 255 255 255 255
255 255 255 255 255 255 255 255 255
255 255 255 255 255 255 255 255 255
255 255 255 255 255 255 255 255 255
255 255 255 255 255 255 255 255 255
255 255 255 255 255 255 255 255 255
255 255 255 255 255 255 255 255 255
255 255 255 255 255 255 255 255 255
255 255 255 255 255 255 255 255 255
255 255 255 255 255 255 255 255 255
255 255 255 255 255 255 255 255 255
255 255 255 255 255 255 255 255 255
255 255 255 255 255 255 255 255 255
255 255 255 255 255 255 255 255 255
255 255 255 255 255 255 255 255 255
255 255 255 255 255 255 255 255 255
255 255 255 255 255 255 255 255 255
255 255 255 255 255 255 255 255 255
255 255 255 255 255 255 255 255 255
255 255 255 255 255 255 255 255 255
255 255 255 255 255 255 255 255 255
255 255 255 255 255 255 255 255 255
255 255 255 255 255 255 255 255 255
255 255 255 255 255 255 255 255 255
255 255 255 255 255 255 255 255 255
255 255 255 255 255 255 255 255 255
255 255 255 255 255 255 255 255 255
255 255 255 255 255 255 255 255 255
255 255 255 255 255 255 255 255 255
255 255 255 255 255 255 255 255 255
255 255 255 255 255 255 255 255 255
255 255 255 255 255 255 255 255 255
255 255 255 255 255 255 255 255 255
255 255 255 255 255 255 255 255 255
255 255 255 255 255 255 255 255 255
255 255 255 255 255 255 255 255 255
255 255 255 255 255 255 255 255 255
255 255 255 255 255 255 255 255 255
255 255 255 255 255 255 255 255 255
255 255 255 255 255 255 255 255 255
255 255 255 255 255 255 255 255 255
255 255 255 255 255 255 255 255 255
255 255 255 255 255 255 255 255 255
255 255 255 255 255 255 255 255 255
255 255 255 255 255 255 255 255 255
255 255 255 255 255 255 255 255 255
255 255 255 255 255 255 255 255 255
255 255 255 255 255 255 255 255 255
255 255 255 255 255 255 255 255 255
255 255 255 255 255 255 255 255 255
255 255 255 255 255 255 255 255 255
255 255 255 255 255 255 255 255 255
255 255 255 255 255 255 255 255 255
255 255 255 255 255 255 255 255 255
255 255 255 255 255 255 255 255 255
255 255 255 255 255 255 255 255 255
255 255 255 255 255 255 255 255 255
255 255 255 255 255 255 255 255 255
255 255 255 255 255 255 255 255 255
255 255 255 255 255 255 255 255 255
255 255 255 255 255 255 255 255 255
255 255 255 255 255 255 255 255 255
255 255 255 255 255 255 255 255 255
255 255 255 255 255 255 255 255 255
255 255 255 255 255 255 255 255 255
255 255 255 255 255 255 255 255 255
255 255 255 255 255 255 255 255 255
255 255 255 255 255 255 255 255 255
255 255 255 255 255 255 255 255 255
255 255 255 255 255 255 255 255 255
255 255 255 255 255 255 255 255 255
255 255 255 255 255 255 255 255 255
255 255 255 255 255 255 255 255 255
255 255 255 255 255 255 255 255 255
255 255 255 255 255 255 255 255 255
255 255 255 255 255 255 255 255 255
255 255 255 255 255 255 255 255 255
255 255 255 255 255 255 255 255 255
255 255 255 255 255 255 255 255 255
255 255 255 255 255 255 255 255 255
255 255 255 255 255 255 255 255 255
255 255 255 255 255 255 255 255 255
255 255 255 255 255 255 255 255 255
255 255 255 255 255 255 255 255 255
255 255 255 255 255 255 255 255 255
255 255 255 255 255 255 255 255 255
255 255 255 255 255 255 255 255 255
255 255 255 255 255 255 255 255 255
255 255 255 255 255 255 255 255 255
255 255 255 255 255 255 255 255 255
255 255 255 255 255 255 255 255 255
255 255 255 255 255 255 255 255 255
255 255 255 255 255 255 255 255 255
255 255 255 255 255 255 255 255 255
255 255 255 255 255 255 255 255 255
255 255 255 255 255 255 255 255 255
255 255 255 255 255 255 255 255 255
255 255 255 255 255 255 255 255 255
255 255 255 255 255 255 255 255 255
255 255 255 255 255 255 255 255 255
255 255 255 255 255 255 255 255 255
255 255 255 255 255 255 255 255 255
255 255 255 255 255 255 255 255 255
255 255 255 255 255 255 255 255 255
255 255 255 255 255 255 255 255 255
255 255 255 255 255 255 255 255 255
255 255 255 255 255 255 255 255 255
255 255 255 255 255 255 255 255 255
255 255 255 255 255 255 255 255 255
255 255 255 255 255 255 255 255 255
255 255 255 255 255 255 255 255 255
255 255 255 255 255 255 255 255 255
255 255 255 255 255 255 255 255 255
255 255 255 255 255 255 255 255 255
255 255 255 255 255 255 255 255 255
255 255 255 255 255 255 255 255 255
255 255 255 255 255 255 255 255 255
255 255 255 255 255 255 255 255 255
255 255 255 255 255 255 255 255 255
255 255 255 255 255 255 255 255 255
255 255 255 255 255 255 255 255 255
255 255 255 255 255 255 255 255 255
255 255 255 255 255 255 255 255 255
255 255 255 255 255 255 255 255 255
255 255 255 255 255 255 255 255 255
255 255 255 255 255 255 255 255 255
255 255 255 255 255 255 255 255 255
255 255 255 255 255 255 255 255 255
255 255 255 255 255 255 255 255 255
255 255 255 255 255 255 255 255 255
255 255 255 255 255 255 255 255 255
255 255 255 255 255 255 255 255 255
255 255 255 255 255 255 255 255 255
255 255 255 255 255 255 255 255 255
255 255 255 255 255 255 255 255 255
255 255 255 255 255 255 255 255 255
255 255 255 255 255 255 255 255 255
255 255 255 255 255 255 255 255 255
255 255 255 255 255 255 255 255 255
255 255 255 255 255 255 255 255 255
255 255 255 255 255 255 255 255 255
255 255 255 255 255 255 255 255 255
255 255 255 255 255 255 255 255 255
255 255 255 255 255 255 255 255 255
255 255 255 255 255 255 255 255 255
255 255 255 255 255 255 255 255 255
255 255 255 255 255 255 255 255 255
255 255 255 255 255 255 255 255 255
255 255 255 255 255 255 255 255 255
255 255 255 255 255 255 255 255 255
255 255 255 255 255 255 255 255 255
255 255 255 255 255 255 255 255 255
255 255 255 255 255 255 255 255 255
255 255 255 255 255 255 255 255 255
255 255 255 255 255 255 255 255 255
255 255 255 255 255 255 255 255 255
255 255 255 255 255 255 255 255 255
255 255 255 255 255 255 255 255 255
255 255 255 255 255 255 255 255 255
255 255 255 255 255 255 255 255 255
255 255 255 255 255 255 255 255 255
255 255 255 255 255 255 255 255 255
255 255 255 255 255 255 255 255 255
255 255 255 255 255 255 255 255 255
255 255 255 255 255 255 255 255 255
255 255 255 255 255 255 255 255 255
255 255 255 255 255 255 255 255 255
255 255 255 255 255 255 255 255 255
255 255 255 255 255 255 255 255 255
255 255 255 255 255 255 255 255 255
255 255 255 255 255 255 255 255 255
255 255 255 255 255 255 255 255 255
255 255 255 255 255 255 255 255 255
255 255 255 255 255 255 255 255 255
255 255 255 255 255 255 255 255 255
255 255 255 255 255 255 255 255 255
255 255 255 255 255 255 255 255 255
255 255 255 255 255 255 255 255 255
255 255 255 255 255 255 255 255 255
255 255 255 255 255 255 255 255 255
255 255 255 255 255 255 255 255 255
255 255 255 255 255 255 255 255 255
255 255 255 255 255 255 255 255 255
255 255 255 255 255 255 255 255 255
255 255 255 255 255 255 255 255 255
255 255 255 255 255 255 255 255 255
255 255 255 255 255 255 255 255 255
255 255 255 255 255 255 255 255 255
255 255 255 255 255 255 255 255 255
255 255 255 255 255 255 255 255 255
255 255 255 255 255 255 255 255 255
255 255 255 255 255 255 255 255 255
255 255 255 255 255 255 255 255 255
255 255 255 255 255 255 255 255 255
255 255 255 255 255 255 255 255 255
255 255 255 255 255 255 255 255 255
255 255 255 255 255 255 255 255 255
255 255 255 255 255 255 255 255 255
255 255 255 255 255 255 255 255 255
255 255 255 255 255 255 255 255 255
255 255 255 255 255 255 255 255 255
255 255 255 255 255 255 255 255 255
255 255 255 255 255 255 255 255 255
255 255 255 255 255 255 255 255 255
255 255 255 255 255 255 255 255 255
255 255 255 255 255 255 255 255 255
255 255 255 255 255 255 255 255 255
255 255 255 255 255 255 255 255 255
255 255 255 255 255 255 255 255 255
255 255 255 255 255 255 255 255 255
255 255 255 255 255 255 255 255 255
255 255 255 255 255 255 255 255 255
255 255 255 255 255 255 255 255 255
255 255 255 255 255 255 255 255 255
255 255 255 255 255 255 255 255 255
255 255 255 255 255 255 255 255 255
255 255 255 255 255 255 255 255 255
255 255 255 255 255 255 255 255 255
255 255 255 255 255 255 255 255 255
255 255 255 255 255 255 255 255 255
255 255 255 255 255 255 255 255 255
255 255 255 255 255 255 255 255 255
255 255 255 255 255 255 255 255 255
255 255 255 255 255 255 255 255 255
255 255 255 255 255 255 255 255 255
255 255 255 255 255 255 255 255 255
255 255 255 255 255 255 255 255 255
255 255 255 255 255 255 255 255 255
255 255 255 255 255 255 255 255 255
255 255 255 255 255 255 255 255 255
255 255 255 255 255 255 255 255 255
255 255 255 255 255 255 255 255 255
255 255 255 255 255 255 255 255 255
255 255 255 255 255 255 255 255 255
255 255 255 255 255 255 255 255 255
255 255 255 255 255 255 255 255 255
255 255 255 255 255 255 255 255 255
255 255 255 255 255 255 255 255 255
255 255 255 255 255 255 255 255 255
255 255 255 255 255 255 255 255 255
255 255 255 255 255 255 255 255 255
255 255 255 255 255 255 255 255 255
255 255 255 255 255 255 255 255 255
255 255 255 255 255 255 255 255 255
255 255 255 255 255 255 255 255 255
255 255 255 255 255 255 255 255 255
255 255 255 255 255 255 255 255 255
255 255 255 255 255 255 255 255 255
255 255 255 255 255 255 255 255 255
255 255 255 255 255 255 255 255 255
255 255 255 255 255 255 255 255 255
255 255 255 255 255 255 255 255 255
255 255 255 255 255 255 255 255 255
255 255 255 255 255 255 255 255 255
255 255 255 255 255 255 255 255 255
255 255 255 255 255 255 255 255 255
255 255 255 255 255 255 255 255 255
255 255 255 255 255 255 255 255 255
255 255 255 255 255 255 255 255 255
255 255 255 255 255 255 255 255 255
255 255 255 255 255 255 255 255 255
255 255 255 255 255 255 255 255 255
255 255 255 255 255 255 255 255 255
255 255 255 255 255 255 255 255 255
255 255 255 255 255 255 255 255 255
255 255 255 255 255 255 255 255 255
255 255 255 255 255 255 255 255 255
255 255 255 255 255 255 255 255 255
255 255 255 255 255 255 255 255 255
255 255 255 255 255 255 255 255 255
255 255 255 255 255 255 255 255 255
255 255 255 255 255 255 255 255 255
255 255 255 255 255 255 255 255 255
255 255 255 255 255 255 255 255 255
255 255 255 255 255 255 255 255 255
255 255 255 255 255 255 255 255 255
255 255 255 255 255 255 255 255 255
255 255 255 255 255 255 255 255 255
255 255 255 255 255 255 255 255 255
255 255 255 255 255 255 255 255 255
255 255 255 255 255 255 255 255 255
255 255 255 255 255 255 255 255 255
255 255 255 255 255 255 255 255 255
255 255 255 255 255 255 255 255 255
255 255 255 255 255 255 255 255 255
255 255 255 255 255 255 255 255 255
255 255 255 255 255 255 255 255 255
255 255 255 255 255 255 255 255 255
255 255 255 255 255 255 255 255 255
255 255 255 255 255 255 255 255 255
255 255 255 255 255 255 255 255 255
255 255 255 255 255 255 255 255 255
255 255 255 255 255 255 255 255 255
255 255 255 255 255 255 255 255 255
255 255 255 255 255 255 255 255 255
255 255 255 255 255 255 255 255 255
255 255 255 255 255 255 255 255 255
255 255 255 255 255 255 255 255 255
255 255 255 255 255 255 255 255 255
255 255 255 255 255 255 255 255 255
255 255 255 255 255 255 255 255 255
255 255 255 255 255 255 255 255 255
255 255 255 255 255 255 255 255 255
255 255 255 255 255 255 255 255 255
255 255 255 255 255 255 255 255 255
255 255 255 255 255 255 255 255 255
255 255 255 255 255 255 255 255 255
255 255 255 255 255 255 255 255 255
255 255 255 255 255 255 255 255 255
255 255 255 255 255 255 255 255 255
255 255 255 255 255 255 255 255 255
255 255 255 255 255 255 255 255 255
255 255 255 255 255 255 255 255 255
255 255 255 255 255 255 255 255 255
255 255 255 255 255 255 255 255 255
255 255 255 255 255 255 255 255 255
255 255 255 255 255 255 255 255 255
255 255 255 255 255 255 255 255 255
255 255 255 255 255 255 255 255 255
255 255 255 255 255 255 255 255 255
255 255 255 255 255 255 255 255 255
255 255 255 255 255 255 255 255 255
255 255 255 255 255 255 255 255 255
255 255 255 255 255 255 255 255 255
255 255 255 255 255 255 255 255 255
255 255 255 255 255 255 255 255 255
255 255 255 255 255 255 255 255 255
255 255 255 255 255 255 255 255 255
255 255 255 255 255 255 255 255 255
255 255 255 255 255 255 255 255 255
255 255 255 255 255 255 255 255 255
255 255 255 255 255 255 255 255 255
255 255 255 255 255 255 255 255 255
255 255 255 255 255 255 255 255 255
255 255 255 255 255 255 255 255 255
255 255 255 255 255 255 255 255 255
255 255 255 255 255 255 255 255 255
255 255 255 255 255 255 255 255 255
255 255 255 255 255 255 255 255 255
255 255 255 255 255 255 255 255 255
255 255 255 255 255 255 255 255 255
255 255 255 255 255 255 255 255 255
255 255 255 255 255 255 255 255 255
255 255 255 255 255 255 255 255 255
255 255 255 255 255 255 255 255 255
255 255 255 255 255 255 255 255 255
255 255 255 255 255 255 255 255 255
255 255 255 255 255 255 255 255 255
255 255 255 255 255 255 255 255 255
255 255 255 255 255 255 255 255 255
255 255 255 255 255 255 255 255 255
255 255 255 255 255 255 255 255 255
255 255 255 255 255 255 255 255 255
255 255 255 255 255 255 255 255 255
255 255 255 255 255 255 255 255 255
255 255 255 255 255 255 255 255 255
255 255 255 255 255 255 255 255 255
255 255 255 255 255 255 255 255 255
255 255 255 255 255 255 255 255 255
255 255 255 255 255 255 255 255 255
255 255 255 255 255 255 255 255 255
255 255 255 255 255 255 255 255 255
255 255 255 255 255 255 255 255 255
255 255 255 255 255 255 255 255 255
255 255 255 255 255 255 255 255 255
255 255 255 255 255 255 255 255 255
255 255 255 255 255 255 255 255 255
255 255 255 255 255 255 255 255 255
255 255 255 255 255 255 255 255 255
255 255 255 255 255 255 255 255 255
255 255 255 255 255 255 255 255 255
255 255 255 255 255 255 255 255 255
255 255 255 255 255 255 255 255 255
255 255 255 255 255 255 255 255 255
255 255 255 255 255 255 255 255 255
255 255 255 255 255 255 255 255 255
255 255 255 255 255 255 255 255 255
255 255 255 255 255 255 255 255 255
255 255 255 255 255 255 255 255 255
255 255 255 255 255 255 255 255 255
255 255 255 255 255 255 255 255 255
255 255 255 255 255 255 255 255 255
255 255 255 255 255 255 255 255 255
255 255 255 255 255 255 255 255 255
255 255 255 255 255 255 255 255 255
255 255 255 255 255 255 255 255 255
255 255 255 255 255 255 255 255 255
255 255 255 255 255 255 255 255 255
255 255 255 255 255 255 255 255 255
255 255 255 255 255 255 255 255 255
255 255 255 255 255 255 255 255 255
255 255 255 255 255 255 255 255 255
255 255 255 255 255 255 255 255 255
255 255 255 255 255 255 255 255 255
255 255 255 255 255 255 255 255
VECTORS vectors float
41.5 -104 -85 -0.5 -20 0 8.5 -11.5 0 
-76 7.5 -71 0 -10 0 44 -31 0 
-69 -45 0 14.5 0 -21.5 -34.5 26 0 
-54.5 3.5 -49 0 0 -26 -2.5 0 0 
0 6.5 0 -54 19 0 0 0 -14.5 
1.5 0 0 34 23.5 0 26 34.5 -35.5 
-78.5 72.5 -87 -41 42 0 1 0 -8.5 
0 2.5 0 49.5 11.5 0 -23 42 0 
-4 12.5 0 0 0.5 0 -0.5 0 0 
-2 32.5 -102 -2 4 -40.5 -6.5 53 0 
2.5 0 -2.5 5.5 34 0 83 78 -91.5 
14.5 -71 -50.5 37.5 -10 -58 21 -9 0 
83.5 24 -117.5 29.5 19 -84 0 0 -4.5 
0 0 -2 71.5 46 -98.5 0 5.5 -1.5 
-6.5 60.5 -37 1.5 53 -76 -15.5 -73 -26.5 
0 0 -1 69 -38.5 -85.5 11 0 -35 
-120 -35.5 -112.5 -9 0 -23 0 0 -3.5 
16 1 -50.5 -22 33.5 -116.5 0 0 -2.5 
0 0 -4 -15.5 12.5 -43 7.5 69.5 -22.5 
0 -15.5 -101.5 0 -6 -75 -9.5 -40.5 -2 
31.5 -12 -43 -87.5 -43.5 -87.5 0 -1 -1 
0 0 -16.5 32.5 4 -65.5 0 0 -2 
84 14.5 -77 62.5 56 -78 28.5 83.5 -23.5 
-7 48 -42 14 64.5 -104 -79.5 -122 -127.5 
5.5 -117.5 -127.5 -127.5 -127.5 -127.5 0 45 -127.5 
0 12 -127.5 13 -69.5 -67.5 0 -0.5 0 
-114 -127.5 -127.5 0 0 -2 -127.5 -127.5 -127.5 
-2.5 0 -2 3 0 -4 -1 -14 -22.5 
3.5 -55 -127.5 13 82 -127.5 -29.5 -21 -127.5 
2.5 0 -17 -24 17.5 -20.5 103 52 -62.5 
-24 74.5 -62 44 30.5 -43.5 0 0.5 0 
0 0.5 -3.5 0 10.5 -37.5 -26.5 110.5 -71.5 
73.5 -108.5 -127.5 0 0 -127.5 14.5 26.5 -10 
-127.5 -127.5 -127.5 0 0 -127.5 -4.5 42 0 
-20.5 -90 -36.5 -13 -88 -51 0 0 -13 
0 0 -7 0 -4.5 0 2.5 -64.5 -90 
0 0 -6 19 -53.5 -27 97.5 -53.5 -0.5 
0 0 -127.5 37.5 14 -13.5 -127.5 -127.5 -127.5 
0 29 -83 -127.5 -127.5 -127.5 0 0 -127.5 
0 0 -127.5 104 -12.5 -86 0 0 -127.5 
-6.5 54.5 -110 0 18 0 -43.5 -1.5 -23 
1 0 0 -61.5 18.5 -49.5 31 30.5 -80 
-52 65.5 -33.5 12.5 110 -58.5 -124.5 -127.5 -127.5 
2 0 -127.5 0 0 -127.5 0.5 0 0 
-127.5 -127.5 -127.5 -54 76.5 -127.5 0 41.5 -45.5 
36 85.5 -52.5 -41.5 66.5 -96.5 0 10.5 0 
3 72 -53.5 -8.5 -104 -58 -1 -68 -0.5 
0 -1 0 0 -1.5 0 38 6 -49 
-89.5 -8.5 -74 42 111 -62.5 0 0 -1 
-17.5 64 -56 -15.5 87 -60 29 98 -71 
0 0 -3 -98.5 69 -89 -87 42.5 -57.5 
0 1 0 -3 66 -34.5 0 0 -22.5 
-32 97 -80.5 26.5 95.5 -59 -127.5 -127.5 -127.5 
0 0 -127.5 42.5 0 -13 -2.5 15 0 
33 102.5 -28 -21 -127.5 -127.5 0 -39.5 -39 