# vtk DataFile Version 4.0
vtk output
ASCII
DATASET POLYDATA
POINTS 20191 float
292 138 1 298 138 0 288 139 0
291 139 1 295 139 0 285 140 0
306 140 0 303 141 0 284 142 0
306 142 0 281 143 0 280 146 0
312 146 0 312 148 0 313 150 1
191 151 1 193 151 1 197 151 0
199 151 1 277 151 0 315 151 0
202 152 0 314 152 0 189 153 1
201 153 0 184 154 0 206 154 0
316 154 0 274 155 0 315 155 0
181 156 0 316 157 1 209 158 0
317 158 0 177 159 0 176 161 0
274 162 0 211 163 1 212 164 1
316 164 0 175 167 0 275 168 0
314 169 0 213 170 0 175 171 0
278 171 0 314 171 0 176 172 0
312 171 0 213 174 0 279 174 0
176 175 0 212 175 0 282 175 0
309 176 0 308 176 0 284 178 1
305 178 1 177 179 0 284 179 0
305 179 0 212 180 0 303 179 0
291 180 0 292 181 0 295 180 0
299 180 0 211 182 0 180 183 0
208 183 0 180 185 1 206 185 0
182 187 0 204 187 0 185 189 0
188 188 0 198 188 0 201 189 1
189 190 1 193 190 0 160 219 0
162 219 0 164 219 1 155 220 1
159 220 0 163 220 0 168 220 0
155 221 0 167 221 0 169 221 0
148 222 0 171 222 0 171 224 0
143 227 0 145 227 0 176 228 0
141 230 0 142 231 0 176 231 0
140 233 1 177 234 0 178 234 1
140 235 0 141 240 0 444 241 0
438 242 1 443 242 0 445 242 0
142 243 0 434 243 1 436 243 0
439 243 0 449 243 1 452 243 0
141 244 1 435 244 0 454 244 0
430 245 0 177 246 0 454 246 0
143 247 0 178 247 0 427 248 0
428 249 0 143 250 0 176 250 0
172 252 0 424 252 0 459 252 0
146 253 1 172 253 0 148 254 0
424 254 0 169 254 0 170 255 0
425 255 0 166 255 0 167 256 0
169 256 1 460 256 0 150 256 0
151 257 0 152 256 0 162 256 0
165 257 1 423 257 0 158 257 0
460 258 0 462 259 1 423 260 1
462 261 1 461 262 0 423 265 1
425 265 0 424 268 1 460 268 0
461 269 0 426 272 0 428 273 0
455 275 0 430 277 0 453 276 0
452 277 0 454 277 0 433 279 0
436 278 0 446 278 0 447 279 0
439 280 0 442 279 0 443 280 0
209 284 1 205 285 1 213 285 0
215 285 1 202 286 1 216 286 0
218 286 0 205 287 0 215 287 0
220 287 0 198 288 0 196 289 1
221 290 0 223 290 1 193 292 0
195 292 0 224 292 0 225 292 0
192 294 0 191 297 0 226 297 0
227 297 1 192 298 0 99 299 1
95 300 1 100 300 0 109 300 1
111 300 0 190 300 1 228 300 1
108 301 0 190 301 0 90 302 0
93 302 0 114 302 0 88 304 1
191 304 0 190 305 0 228 305 0
87 306 0 116 306 0 191 306 0
229 306 0 118 307 0 190 307 1
84 309 0 191 309 0 227 309 0
83 310 0 118 310 0 192 310 0
84 311 0 119 311 0 120 311 1
192 313 0 83 314 0 120 315 0
194 315 1 82 316 0 193 316 0
226 316 0 83 317 0 195 317 0
224 316 0 82 318 1 121 319 0
82 320 1 83 320 0 221 320 0
218 321 0 199 321 0 203 321 0
202 322 0 215 321 0 201 323 0
203 323 1 205 323 0 212 322 0
211 323 0 213 323 1 215 323 1
83 324 1 207 324 0 208 323 0
85 327 0 119 328 0 118 330 0
87 331 0 87 331 1 116 330 0
116 332 1 90 333 0 114 334 0
90 335 0 113 334 1 109 335 0
108 336 0 98 337 0 105 336 0
102 337 0 288 139 2 283 142 2
193 150 2 195 150 2 194 151 2
201 151 2 314 151 2 184 153 2
181 155 2 315 155 2 179 156 2
208 156 2 274 159 2 315 159 2
213 164 2 174 165 2 175 166 2
174 170 2 213 171 2 312 171 2
213 173 2 214 174 2 213 177 2
177 182 2 211 182 2 209 185 2
181 186 2 201 189 2 203 189 2
161 218 2 163 218 2 165 218 2
162 219 2 163 219 2 157 220 2
174 224 2 178 229 2 140 231 2
179 235 2 140 236 2 139 237 2
179 237 2 179 238 2 140 240 2
438 241 2 436 242 2 440 242 2
447 242 2 140 245 2 429 245 2
456 246 2 143 250 2 423 253 2
459 253 2 422 255 2 163 258 2
423 258 2 422 259 2 462 260 2
423 267 2 462 267 2 425 272 2
458 273 2 457 275 2 428 276 2
450 278 2 451 279 2 435 280 2
441 281 2 213 284 2 215 284 2
205 285 2 217 285 2 200 286 2
225 291 2 191 296 2 101 298 2
105 298 2 227 299 2 95 300 2
92 301 2 94 301 2 189 301 2
114 302 2 116 303 2 189 303 2
86 305 2 120 309 2 229 310 2
82 312 2 192 312 2 191 313 2
192 315 2 120 316 2 224 318 2
195 319 2 83 321 2 121 321 2
82 322 2 218 322 2 214 322 2
203 324 2 121 325 2 87 333 2
115 334 2 93 336 2 107 336 2
95 338 2 104 337 2 105 338 2
103 339 2 294 139 3 291 140 3
281 143 3 189 151 3 186 152 3
316 154 3 212 160 3 316 162 3
316 164 3 274 165 3 173 170 3
175 174 3 279 174 3 296 180 3
176 181 3 190 190 3 239 192 3
157 218 3 154 219 3 150 220 3
176 227 3 177 230 3 139 234 3
179 240 3 443 240 3 447 240 3
434 242 3 431 243 3 142 249 3
460 250 3 461 253 3 174 254 3
168 256 3 162 258 3 155 259 3
463 261 3 422 263 3 427 275 3
450 279 3 447 280 3 225 291 3
227 293 3 228 296 3 227 297 3
107 298 3 97 299 3 189 299 3
91 300 3 228 301 3 87 303 3
230 309 3 120 312 3 122 316 3
194 318 3 224 319 3 217 322 3
213 324 3 83 326 3 112 336 3
297 140 4 299 140 4 284 142 4
282 144 4 313 152 4 182 155 4
274 155 4 209 158 4 210 159 4
316 160 4 276 163 4 315 165 4
213 166 4 174 167 4 175 168 4
174 169 4 214 172 4 278 172 4
213 173 4 291 179 4 178 182 4
238 184 4 236 185 4 240 186 4
205 187 4 232 190 4 239 191 4
239 193 4 246 194 4 242 199 4
236 200 4 242 200 4 153 220 4
175 226 4 178 234 4 445 241 4
140 245 4 423 258 4 269 268 4
265 271 4 277 271 4 265 278 4
279 280 4 448 279 4 212 285 4
196 288 4 198 288 4 197 289 4
95 299 4 96 300 4 229 300 4
190 302 4 83 323 4 86 331 4
226 378 4 231 379 4 231 380 4
220 381 4 219 383 4 234 386 4
221 391 4 231 391 4 223 393 4
228 394 4 298 140 5 195 150 5
199 150 5 198 151 5 181 154 5
276 157 5 275 158 5 211 160 5
315 161 5 314 162 5 212 163 5
213 167 5 173 168 5 173 170 5
215 171 5 279 171 5 215 173 5
175 174 5 174 175 5 214 175 5
308 175 5 240 185 5 208 186 5
189 191 5 190 190 5 230 194 5
231 196 5 233 199 5 180 239 5
179 240 5 447 240 5 139 241 5
180 241 5 446 241 5 180 243 5
435 243 5 458 248 5 458 249 5
172 254 5 173 253 5 156 258 5
158 258 5 463 261 5 422 263 5
423 264 5 279 270 5 427 274 5
456 276 5 263 279 5 437 281 5
439 281 5 205 284 5 204 285 5
206 285 5 97 298 5 229 298 5
189 301 5 228 301 5 90 302 5
229 302 5 117 305 5 229 306 5
229 308 5 230 309 5 191 311 5
82 315 5 81 318 5 223 319 5
221 320 5 208 324 5 209 325 5
86 330 5 85 331 5 230 377 5
229 378 5 300 139 6 189 150 6
187 151 6 182 153 6 185 153 6
314 153 6 180 154 6 314 155 6
210 157 6 274 159 6 275 160 6
215 165 6 173 174 6 214 174 6
310 174 6 215 175 6 281 175 6
309 175 6 175 178 6 300 179 6
241 181 6 295 180 6 239 183 6
178 185 6 201 190 6 196 190 6
197 191 6 228 191 6 229 197 6
232 197 6 244 199 6 245 200 6
239 201 6 238 203 6 161 217 6
146 222 6 178 229 6 177 230 6
180 233 6 140 240 6 439 240 6
441 240 6 444 240 6 429 245 6
427 246 6 457 246 6 142 247 6
143 252 6 461 254 6 463 255 6
422 256 6 168 256 6 166 257 6
161 258 6 165 259 6 421 259 6
463 263 6 462 264 6 463 265 6
277 266 6 261 274 6 263 275 6
454 278 6 262 280 6 282 281 6
444 280 6 445 281 6 262 282 6
263 282 6 438 282 6 440 282 6
441 281 6 266 285 6 227 295 6
100 299 6 230 299 6 188 300 6
229 301 6 188 302 6 230 303 6
118 304 6 190 306 6 189 307 6
121 311 6 190 311 6 81 314 6
122 319 6 123 322 6 122 323 6
205 325 6 206 324 6 84 327 6
84 330 6 113 335 6 114 336 6
109 338 6 105 339 6 99 339 6
234 378 6 217 380 6 234 381 6
236 383 6 238 387 6 225 395 6
233 395 6 294 139 7 295 140 7
302 140 7 280 145 7 196 150 7
313 150 7 276 152 7 312 152 7
275 156 7 315 159 7 314 160 7
315 163 7 214 168 7 214 170 7
174 171 7 173 176 7 302 178 7
304 178 7 288 179 7 296 180 7
233 181 7 235 181 7 249 185 7
207 187 7 251 188 7 203 189 7
252 191 7 228 192 7 252 193 7
233 201 7 243 204 7 239 205 7
163 217 7 159 218 7 146 221 7
176 225 7 179 231 7 180 237 7
180 239 7 445 239 7 430 243 7
140 247 7 143 251 7 142 252 7
462 256 7 463 257 7 159 259 7
160 258 7 156 260 7 462 260 7
265 265 7 422 268 7 424 270 7
262 271 7 284 273 7 259 275 7
432 278 7 433 279 7 452 278 7
261 280 7 281 282 7 443 281 7
444 282 7 205 283 7 207 283 7
202 284 7 206 284 7 265 284 7
200 286 7 279 286 7 196 287 7
199 287 7 276 287 7 93 299 7
189 305 7 188 306 7 231 307 7
190 313 7 191 313 7 80 315 7
192 317 7 82 319 7 223 321 7
199 321 7 81 324 7 209 325 7
213 325 7 214 324 7 85 332 7
102 338 7 103 339 7 220 375 7
231 376 7 234 376 7 233 377 7
237 379 7 237 381 7 214 385 7
214 387 7 238 391 7 217 393 7
218 394 7 231 396 7 227 397 7
232 397 7 225 398 7 229 398 7
292 140 8 289 141 8 290 142 8
284 144 8 306 144 8 281 145 8
281 146 8 184 152 8 313 153 8
276 159 8 275 160 8 280 173 8
306 175 8 302 178 8 303 177 8
298 179 8 233 180 8 231 182 8
251 186 8 251 189 8 226 193 8
252 195 8 248 200 8 248 201 8
235 203 8 232 204 8 233 205 8
159 217 8 141 228 8 178 249 8
176 250 8 424 250 8 160 260 8
277 263 8 275 264 8 460 271 8
285 275 8 451 280 8 262 283 8
208 284 8 220 286 8 265 288 8
267 288 8 101 297 8 100 298 8
102 298 8 83 328 8 120 329 8
91 336 8 235 377 8 214 379 8
240 383 8 240 385 8 214 386 8
215 389 8 238 390 8 219 396 8
235 396 8 300 142 9 305 142 9
285 143 9 306 143 9 309 147 9
310 147 9 277 150 9 313 155 9
313 158 9 314 159 9 176 160 9
277 161 9 278 165 9 279 169 9
313 169 9 312 171 9 310 172 9
283 174 9 236 177 9 302 176 9
237 178 9 239 178 9 241 178 9
245 178 9 289 177 9 292 179 9
294 179 9 231 180 9 249 180 9
249 182 9 227 183 9 250 185 9
225 186 9 226 193 9 225 196 9
227 199 9 228 199 9 228 201 9
251 201 9 231 203 9 248 203 9
233 206 9 240 205 9 241 206 9
244 206 9 180 233 9 424 250 9
460 250 9 149 257 9 269 261 9
421 261 9 266 263 9 281 264 9
259 267 9 259 270 9 286 271 9
423 271 9 286 274 9 286 276 9
257 279 9 431 279 9 441 281 9
260 284 9 199 285 9 281 285 9
219 287 9 278 287 9 269 289 9
277 289 9 228 294 9 83 308 9
120 308 9 122 317 9 81 319 9
122 319 9 198 321 9 83 328 9
119 328 9 120 329 9 112 337 9
102 339 9 223 372 9 231 372 9
233 372 9 216 376 9 217 377 9
238 377 9 239 379 9 241 381 9
241 384 9 213 390 9 216 393 9
215 394 9 239 395 9 234 397 9
235 398 9 297 141 10 298 142 10
307 146 10 280 149 10 187 150 10
278 151 10 278 153 10 276 158 10
313 158 10 277 161 10 213 162 10
313 162 10 277 163 10 214 168 10
215 169 10 173 170 10 311 170 10
174 171 10 280 171 10 173 172 10
174 173 10 173 176 10 244 177 10
287 177 10 242 178 10 299 177 10
252 184 10 253 186 10 253 187 10
204 188 10 254 199 10 229 204 10
247 205 10 239 207 10 153 218 10
146 221 10 149 221 10 138 235 10
180 239 10 430 243 10 142 248 10
143 251 10 142 252 10 174 254 10
173 255 10 463 257 10 167 258 10
[...]
POINT_DATA 20191
SCALARS scalars float
LOOKUP_TABLE default
255 255 255 255 255 255 255 255 255
255 255 255 255 255 255 255 255 255
255 255 255 255 255 255 255 255 255
255 255 255 255 255 255 255 255 255
255 255 255 255 255 255 255 255 255
255 255 255 255 255 255 255 255 255
255 255 255 255 255 255 255 255 255
255 255 255 255 255 255 255 255 255
255 255 255 255 255 255 255 255 255
255 255 255 255 255 255 255 255 255
255 255 255 255 255 255 255 255 255
255 255 255 255 255 255 255 255 255
255 255 255 255 255 255 255 255 255
255 255 255 255 255 255 255 255 255
255 255 255 255 255 255 255 255 255
255 255 255 255 255 255 255 255 255
255 255 255 255 255 255 255 255 255
255 255 255 255 255 255 255 255 255
255 255 255 255 255 255 255 255 255
255 255 255 255 255 255 255 255 255
255 255 255 255 255 255 255 255 255
255 255 255 255 255 255 255 255 255
255 255 255 255 255 255 255 255 255
255 255 255 255 255 255 255 255 255
255 255 255 255 255 255 255 255 255
255 255 255 255 255 255 255 255 255
255 255 255 255 255 255 255 255 255
255 255 255 255 255 255 255 255 255
255 255 255 255 255 255 255 255 255
255 255 255 255 255 255 255 255 255
255 255 255 255 255 255 255 255 255
255 255 255 255 255 255 255 255 255
255 255 255 255 255 255 255 255 255
255 255 255 255 255 255 255 255 255
255 255 255 255 255 255 255 255 255
255 255 255 255 255 255 255 255 255
255 255 255 255 255 255 255 255 255
255 255 255 255 255 255 255 255 255
255 255 255 255 255 255 255 255 255
255 255 255 255 255 255 255 255 255
255 255 255 255 255 255 255 255 255
255 255 255 255 255 255 255 255 255
255 255 255 255 255 255 255 255 255
255 255 255 255 255 255 255 255 255
255 255 255 255 255 255 255 255 255
255 255 255 255 255 255 255 255 255
255 255 255 255 255 255 255 255 255
255 255 255 255 255 255 255 255 255
255 255 255 255 255 255 255 255 255
255 255 255 255 255 255 255 255 255
255 255 255 255 255 255 255 255 255
255 255 255 255 255 255 255 255 255
255 255 255 255 255 255 255 255 255
255 255 255 255 255 255 255 255 255
255 255 255 255 255 255 255 255 255
255 255 255 255 255 255 255 255 255
255 255 255 255 255 255 255 255 255
255 255 255 255 255 255 255 255 255
255 255 255 255 255 255 255 255 255
255 255 255 255 255 255 255 255 255
255 255 255 255 255 255 255 255 255
255 255 255 255 255 255 255 255 255
255 255 255 255 255 255 255 255 255
255 255 255 255 255 255 255 255 255
255 255 255 255 255 255 255 255 255
255 255 255 255 255 255 255 255 255
255 255 255 255 255 255 255 255 255
255 255 255 255 255 255 255 255 255
255 255 255 255 255 255 255 255 255
255 255 255 255 255 255 255 255 255
255 255 255 255 255 255 255 255 255
255 255 255 255 255 255 255 255 255
255 255 255 255 255 255 255 255 255
255 255 255 255 255 255 255 255 255
255 255 255 255 255 255 255 255 255
255 255 255 255 255 255 255 255 255
255 255 255 255 255 255 255 255 255
255 255 255 255 255 255 255 255 255
255 255 255 255 255 255 255 255 255
255 255 255 255 255 255 255 255 255
255 255 255 255 255 255 255 255 255
255 255 255 255 255 255 255 255 255
255 255 255 255 255 255 255 255 255
255 255 255 255 255 255 255 255 255
255 255 255 255 255 255 255 255 255
255 255 255 255 255 255 255 255 255
255 255 255 255 255 255 255 255 255
255 255 255 255 255 255 255 255 255
255 255 255 255 255 255 255 255 255
255 255 255 255 255 255 255 255 255
255 255 255 255 255 255 255 255 255
255 255 255 255 255 255 255 255 255
255 255 255 255 255 255 255 255 255
255 255 255 255 255 255 255 255 255
255 255 255 255 255 255 255 255 255
255 255 255 255 255 255 255 255 255
255 255 255 255 255 255 255 255 255
255 255 255 255 255 255 255 255 255
255 255 255 255 255 255 255 255 255
255 255 255 255 255 255 255 255 255
255 255 255 255 255 255 255 255 255
255 255 255 255 255 255 255 255 255
255 255 255 255 255 255 255 255 255
255 255 255 255 255 255 255 255 255
255 255 255 255 255 255 255 255 255
255 255 255 255 255 255 255 255 255
255 255 255 255 255 255 255 255 255
255 255 255 255 255 255 255 255 255
255 255 255 255 255 255 255 255 255
255 255 255 255 255 255 255 255 255
255 255 255 255 255 255 255 255 255
255 255 255 255 255 255 255 255 255
255 255 255 255 255 255 255 255 255
255 255 255 255 255 255 255 255 255
255 255 255 255 255 255 255 255 255
255 255 255 255 255 255 255 255 255
255 255 255 255 255 255 255 255 255
255 255 255 255 255 255 255 255 255
255 255 255 255 255 255 255 255 255
255 255 255 255 255 255 255 255 255
255 255 255 255 255 255 255 255 255
255 255 255 255 255 255 255 255 255
255 255 255 255 255 255 255 255 255
255 255 255 255 255 255 255 255 255
255 255 255 255 255 255 255 255 255
255 255 255 255 255 255 255 255 255
255 255 255 255 255 255 255 255 255
255 255 255 255 255 255 255 255 255
255 255 255 255 255 255 255 255 255
255 255 255 255 255 255 255 255 255
255 255 255 255 255 255 255 255 255
255 255 255 255 255 255 255 255 255
255 255 255 255 255 255 255 255 255
255 255 255 255 255 255 255 255 255
255 255 255 255 255 255 255 255 255
255 255 255 255 255 255 255 255 255
255 255 255 255 255 255 255 255 255
255 255 255 255 255 255 255 255 255
255 255 255 255 255 255 255 255 255
255 255 255 255 255 255 255 255 255
255 255 255 255 255 255 255 255 255
255 255 255 255 255 255 255 255 255
255 255 255 255 255 255 255 255 255
255 255 255 255 255 255 255 255 255
255 255 255 255 255 255 255 255 255
255 255 255 255 255 255 255 255 255
255 255 255 255 255 255 255 255 255
255 255 255 255 255 255 255 255 255
255 255 255 255 255 255 255 255 255
255 255 255 255 255 255 255 255 255
255 255 255 255 255 255 255 255 255
255 255 255 255 255 255 255 255 255
255 255 255 255 255 255 255 255 255
255 255 255 255 255 255 255 255 255
255 255 255 255 255 255 255 255 255
255 255 255 255 255 255 255 255 255
255 255 255 255 255 255 255 255 255
255 255 255 255 255 255 255 255 255
255 255 255 255 255 255 255 255 255
255 255 255 255 255 255 255 255 255
255 255 255 255 255 255 255 255 255
255 255 255 255 255 255 255 255 255
255 255 255 255 255 255 255 255 255
255 255 255 255 255 255 255 255 255
255 255 255 255 255 255 255 255 255
255 255 255 255 255 255 255 255 255
255 255 255 255 255 255 255 255 255
255 255 255 255 255 255 255 255 255
255 255 255 255 255 255 255 255 255
255 255 255 255 255 255 255 255 255
255 255 255 255 255 255 255 255 255
255 255 255 255 255 255 255 255 255
255 255 255 255 255 255 255 255 255
255 255 255 255 255 255 255 255 255
255 255 255 255 255 255 255 255 255
255 255 255 255 255 255 255 255 255
255 255 255 255 255 255 255 255 255
255 255 255 255 255 255 255 255 255
255 255 255 255 255 255 255 255 255
255 255 255 255 255 255 255 255 255
255 255 255 255 255 255 255 255 255
255 255 255 255 255 255 255 255 255
255 255 255 255 255 255 255 255 255
255 255 255 255 255 255 255 255 255
255 255 255 255 255 255 255 255 255
255 255 255 255 255 255 255 255 255
255 255 255 255 255 255 255 255 255
255 255 255 255 255 255 255 255 255
255 255 255 255 255 255 255 255 255
255 255 255 255 255 255 255 255 255
255 255 255 255 255 255 255 255 255
255 255 255 255 255 255 255 255 255
255 255 255 255 255 255 255 255 255
255 255 255 255 255 255 255 255 255
255 255 255 255 255 255 255 255 255
255 255 255 255 255 255 255 255 255
255 255 255 255 255 255 255 255 255
255 255 255 255 255 255 255 255 255
255 255 255 255 255 255 255 255 255
255 255 255 255 255 255 255 255 255
255 255 255 255 255 255 255 255 255
255 255 255 255 255 255 255 255 255
255 255 255 255 255 255 255 255 255
255 255 255 255 255 255 255 255 255
255 255 255 255 255 255 255 255 255
255 255 255 255 255 255 255 255 255
255 255 255 255 255 255 255 255 255
255 255 255 255 255 255 255 255 255
255 255 255 255 255 255 255 255 255
255 255 255 255 255 255 255 255 255
255 255 255 255 255 255 255 255 255
255 255 255 255 255 255 255 255 255
255 255 255 255 255 255 255 255 255
255 255 255 255 255 255 255 255 255
255 255 255 255 255 255 255 255 255
255 255 255 255 255 255 255 255 255
255 255 255 255 255 255 255 255 255
255 255 255 255 255 255 255 255 255
255 255 255 255 255 255 255 255 255
255 255 255 255 255 255 255 255 255
255 255 255 255 255 255 255 255 255
255 255 255 255 255 255 255 255 255
255 255 255 255 255 255 255 255 255
255 255 255 255 255 255 255 255 255
255 255 255 255 255 255 255 255 255
255 255 255 255 255 255 255 255 255
255 255 255 255 255 255 255 255 255
255 255 255 255 255 255 255 255 255
255 255 255 255 255 255 255 255 255
255 255 255 255 255 255 255 255 255
255 255 255 255 255 255 255 255 255
255 255 255 255 255 255 255 255 255
255 255 255 255 255 255 255 255 255
255 255 255 255 255 255 255 255 255
255 255 255 255 255 255 255 255 255
255 255 255 255 255 255 255 255 255
255 255 255 255 255 255 255 255 255
255 255 255 255 255 255 255 255 255
255 255 255 255 255 255 255 255 255
255 255 255 255 255 255 255 255 255
255 255 255 255 255 255 255 255 255
255 255 255 255 255 255 255 255 255
255 255 255 255 255 255 255 255 255
255 255 255 255 255 255 255 255 255
255 255 255 255 255 255 255 255 255
255 255 255 255 255 255 255 255 255
255 255 255 255 255 255 255 255 255
255 255 255 255 255 255 255 255 255
255 255 255 255 255 255 255 255 255
255 255 255 255 255 255 255 255 255
255 255 255 255 255 255 255 255 255
255 255 255 255 255 255 255 255 255
255 255 255 255 255 255 255 255 255
255 255 255 255 255 255 255 255 255
255 255 255 255 255 255 255 255 255
255 255 255 255 255 255 255 255 255
255 255 255 255 255 255 255 255 255
255 255 255 255 255 255 255 255 255
255 255 255 255 255 255 255 255 255
255 255 255 255 255 255 255 255 255
255 255 255 255 255 255 255 255 255
255 255 255 255 255 255 255 255 255
255 255 255 255 255 255 255 255 255
255 255 255 255 255 255 255 255 255
255 255 255 255 255 255 255 255 255
255 255 255 255 255 255 255 255 255
255 255 255 255 255 255 255 255 255
255 255 255 255 255 255 255 255 255
255 255 255 255 255 255 255 255 255
255 255 255 255 255 255 255 255 255
255 255 255 255 255 255 255 255 255
255 255 255 255 255 255 255 255 255
255 255 255 255 255 255 255 255 255
255 255 255 255 255 255 255 255 255
255 255 255 255 255 255 255 255 255
255 255 255 255 255 255 255 255 255
255 255 255 255 255 255 255 255 255
255 255 255 255 255 255 255 255 255
255 255 255 255 255 255 255 255 255
255 255 255 255 255 255 255 255 255
255 255 255 255 255 255 255 255 255
255 255 255 255 255 255 255 255 255
255 255 255 255 255 255 255 255 255
255 255 255 255 255 255 255 255 255
255 255 255 255 255 255 255 255 255
255 255 255 255 255 255 255 255 255
255 255 255 255 255 255 255 255 255
255 255 255 255 255 255 255 255 255
255 255 255 255 255 255 255 255 255
255 255 255 255 255 255 255 255 255
255 255 255 255 255 255 255 255 255
255 255 255 255 255 255 255 255 255
255 255 255 255 255 255 255 255 255
255 255 255 255 255 255 255 255 255
255 255 255 255 255 255 255 255 255
255 255 255 255 255 255 255 255 255
255 255 255 255 255 255 255 255 255
255 255 255 255 255 255 255 255 255
255 255 255 255 255 255 255 255 255
255 255 255 255 255 255 255 255 255
255 255 255 255 255 255 255 255 255
255 255 255 255 255 255 255 255 255
255 255 255 255 255 255 255 255 255
255 255 255 255 255 255 255 255 255
255 255 255 255 255 255 255 255 255
255 255 255 255 255 255 255 255 255
255 255 255 255 255 255 255 255 255
255 255 255 255 255 255 255 255 255
255 255 255 255 255 255 255 255 255
255 255 255 255 255 255 255 255 255
255 255 255 255 255 255 255 255 255
255 255 255 255 255 255 255 255 255
255 255 255 255 255 255 255 255 255
255 255 255 255 255 255 255 255 255
255 255 255 255 255 255 255 255 255
255 255 255 255 255 255 255 255 255
255 255 255 255 255 255 255 255 255
255 255 255 255 255 255 255 255 255
255 255 255 255 255 255 255 255 255
255 255 255 255 255 255 255 255 255
255 255 255 255 255 255 255 255 255
255 255 255 255 255 255 255 255 255
255 255 255 255 255 255 255 255 255
255 255 255 255 255 255 255 255 255
255 255 255 255 255 255 255 255 255
255 255 255 255 255 255 255 255 255
255 255 255 255 255 255 255 255 255
255 255 255 255 255 255 255 255 255
255 255 255 255 255 255 255 255 255
255 255 255 255 255 255 255 255 255
255 255 255 255 255 255 255 255 255
255 255 255 255 255 255 255 255 255
255 255 255 255 255 255 255 255 255
255 255 255 255 255 255 255 255 255
255 255 255 255 255 255 255 255 255
255 255 255 255 255 255 255 255 255
255 255 255 255 255 255 255 255 255
255 255 255 255 255 255 255 255 255
255 255 255 255 255 255 255 255 255
255 255 255 255 255 255 255 255 255
255 255 255 255 255 255 255 255 255
255 255 255 255 255 255 255 255 255
255 255 255 255 255 255 255 255 255
255 255 255 255 255 255 255 255 255
255 255 255 255 255 255 255 255 255
255 255 255 255 255 255 255 255 255
255 255 255 255 255 255 255 255 255
255 255 255 255 255 255 255 255 255
255 255 255 255 255 255 255 255 255
255 255 255 255 255 255 255 255 255
255 255 255 255 255 255 255 255 255
255 255 255 255 255 255 255 255 255
255 255 255 255 255 255 255 255 255
255 255 255 255 255 255 255 255 255
255 255 255 255 255 255 255 255 255
255 255 255 255 255 255 255 255 255
255 255 255 255 255 255 255 255 255
255 255 255 255 255 255 255 255 255
255 255 255 255 255 255 255 255 255
255 255 255 255 255 255 255 255 255
255 255 255 255 255 255 255 255 255
255 255 255 255 255 255 255 255 255
255 255 255 255 255 255 255 255 255
255 255 255 255 255 255 255 255 255
255 255 255 255 255 255 255 255 255
255 255 255 255 255 255 255 255 255
255 255 255 255 255 255 255 255 255
255 255 255 255 255 255 255 255 255
255 255 255 255 255 255 255 255 255
255 255 255 255 255 255 255 255 255
255 255 255 255 255 255 255 255 255
255 255 255 255 255 255 255 255 255
255 255 255 255 255 255 255 255 255
255 255 255 255 255 255 255 255 255
255 255 255 255 255 255 255 255 255
255 255 255 255 255 255 255 255 255
255 255 255 255 255 255 255 255 255
255 255 255 255 255 255 255 255 255
255 255 255 255 255 255 255 255 255
255 255 255 255 255 255 255 255 255
255 255 255 255 255 255 255 255 255
255 255 255 255 255 255 255 255 255
255 255 255 255 255 255 255 255 255
255 255 255 255 255 255 255 255 255
255 255 255 255 255 255 255 255 255
255 255 255 255 255 255 255 255 255
255 255 255 255 255 255 255 255 255
255 255 255 255 255 255 255 255 255
255 255 255 255 255 255 255 255 255
255 255 255 255 255 255 255 255 255
255 255 255 255 255 255 255 255 255
255 255 255 255 255 255 255 255 255
255 255 255 255 255 255 255 255 255
255 255 255 255 255 255 255 255 255
255 255 255 255 255 255 255 255 255
255 255 255 255 255 255 255 255 255
255 255 255 255 255 255 255 255 255
255 255 255 255 255 255 255 255 255
255 255 255 255 255 255 255 255 255
255 255 255 255 255 255 255 255 255
255 255 255 255 255 255 255 255 255
255 255 255 255 255 255 255 255 255
255 255 255 255 255 255 255 255 255
255 255 255 255 255 255 255 255 255
255 255 255 255 255 255 255 255 255
255 255 255 255 255 255 255 255 255
255 255 255 255 255 255 255 255 255
255 255 255 255 255 255 255 255 255
255 255 255 255 255 255 255 255 255
255 255 255 255 255 255 255 255 255
255 255 255 255 255 255 255 255 255
255 255 255 255 255 255 255 255 255
255 255 255 255 255 255 255 255 255
255 255 255 255 255 255 255 255 255
255 255 255 255 255 255 255 255 255
255 255 255 255 255 255 255 255 255
255 255 255 255 255 255 255 255 255
255 255 255 255 255 255 255 255 255
255 255 255 255 255 255 255 255 255
255 255 255 255 255 255 255 255 255
255 255 255 255 255 255 255 255 255
255 255 255 255 255 255 255 255 255
255 255 255 255 255 255 255 255 255
255 255 255 255 255 255 255 255 255
255 255 255 255 255 255 255 255 255
255 255 255 255 255 255 255 255 255
255 255 255 255 255 255 255 255 255
255 255 255 255 255 255 255 255 255
255 255 255 255 255 255 255 255 255
255 255 255 255 255 255 255 255 255
255 255 255 255 255 255 255 255 255
255 255 255 255 255 255 255 255 255
255 255 255 255 255 255 255 255 255
255 255 255 255 255 255 255 255 255
255 255 255 255 255 255 255 255 255
255 255 255 255 255 255 255 255 255
255 255 255 255 255 255 255 255 255
255 255 255 255 255 255 255 255 255
255 255 255 255 255 255 255 255 255
255 255 255 255 255 255 255 255 255
255 255 255 255 255 255 255 255 255
255 255 255 255 255 255 255 255 255
255 255 255 255 255 255 255 255 255
255 255 255 255 255 255 255 255 255
255 255 255 255 255 255 255 255 255
255 255 255 255 255 255 255 255 255
255 255 255 255 255 255 255 255 255
255 255 255 255 255 255 255 255 255
255 255 255 255 255 255 255 255 255
255 255 255 255 255 255 255 255 255
255 255 255 255 255 255 255 255 255
255 255 255 255 255 255 255 255 255
255 255 255 255 255 255 255 255 255
255 255 255 255 255 255 255 255 255
255 255 255 255 255 255 255 255 255
255 255 255 255 255 255 255 255 255
255 255 255 255 255 255 255 255 255
255 255 255 255 255 255 255 255 255
255 255 255 255 255 255 255 255 255
255 255 255 255 255 255 255 255 255
255 255 255 255 255 255 255 255 255
255 255 255 255 255 255 255 255 255
255 255 255 255 255 255 255 255 255
255 255 255 255 255 255 255 255 255
255 255 255 255 255 255 255 255 255
255 255 255 255 255 255 255 255 255
255 255 255 255 255 255 255 255 255
255 255 255 255 255 255 255 255 255
255 255 255 255 255 255 255 255 255
255 255 255 255 255 255 255 255 255
255 255 255 255 255 255 255 255 255
255 255 255 255 255 255 255 255 255
255 255 255 255 255 255 255 255 255
255 255 255 255 255 255 255 255 255
255 255 255 255 255 255 255 255 255
255 255 255 255 255 255 255 255 255
255 255 255 255 255 255 255 255 255
255 255 255 255 255 255 255 255 255
255 255 255 255 255 255 255 255 255
255 255 255 255 255 255 255 255 255
255 255 255 255 255 255 255 255 255
255 255 255 255 255 255 255 255 255
255 255 255 255 255 255 255 255 255
255 255 255 255 255 255 255 255 255
255 255 255 255 255 255 255 255 255
255 255 255 255 255 255 255 255 255
255 255 255 255 255 255 255 255 255
255 255 255 255 255 255 255 255 255
255 255 255 255 255 255 255 255 255
255 255 255 255 255 255 255 255 255
255 255 255 255 255 255 255 255 255
255 255 255 255 255 255 255 255 255
255 255 255 255 255 255 255 255 255
255 255 255 255 255 255 255 255 255
255 255 255 255 255 255 255 255 255
255 255 255 255 255 255 255 255 255
255 255 255 255 255 255 255 255 255
255 255 255 255 255 255 255 255 255
255 255 255 255 255 255 255 255 255
255 255 255 255 255 255 255 255 255
255 255 255 255 255 255 255 255 255
255 255 255 255 255 255 255 255 255
255 255 255 255 255 255 255 255 255
255 255 255 255 255 255 255 255 255
255 255 255 255 255 255 255 255 255
255 255 255 255 255 255 255 255 255
255 255 255 255 255 255 255 255 255
255 255 255 255 255 255 255 255 255
255 255 255 255 255 255 255 255 255
255 255 255 255 255 255 255 255 255
255 255 255 255 255 255 255 255 255
255 255 255 255 255 255 255 255 255
255 255 255 255 255 255 255 255 255
255 255 255 255 255 255 255 255 255
255 255 255 255 255 255 255 255 255
255 255 255 255 255 255 255 255 255
255 255 255 255 255 255 255 255 255
255 255 255 255 255 255 255 255 255
255 255 255 255 255 255 255 255 255
255 255 255 255 255 255 255 255 255
255 255 255 255 255 255 255 255 255
255 255 255 255 255 255 255 255 255
255 255 255 255 255 255 255 255 255
255 255 255 255 255 255 255 255 255
255 255 255 255 255 255 255 255 255
255 255 255 255 255 255 255 255 255
255 255 255 255 255 255 255 255 255
255 255 255 255 255 255 255 255 255
255 255 255 255 255 255 255 255 255
255 255 255 255 255 255 255 255 255
255 255 255 255 255 255 255 255 255
255 255 255 255 255 255 255 255 255
255 255 255 255 255 255 255 255 255
255 255 255 255 255 255 255 255 255
255 255 255 255 255 255 255 255 255
255 255 255 255 255 255 255 255 255
255 255 255 255 255 255 255 255 255
255 255 255 255 255 255 255 255 255
255 255 255 255 255 255 255 255 255
255 255 255 255 255 255 255 255 255
255 255 255 255 255 255 255 255 255
255 255 255 255 255 255 255 255 255
255 255 255 255 255 255 255 255 255
255 255 255 255 255 255 255 255 255
255 255 255 255 255 255 255 255 255
255 255 255 255 255 255 255 255 255
255 255 255 255 255 255 255 255 255
255 255 255 255 255 255 255 255 255
255 255 255 255 255 255 255 255 255
255 255 255 255 255 255 255 255 255
255 255 255 255 255 255 255 255 255
255 255 255 255 255 255 255 255 255
255 255 255 255 255 255 255 255 255